 Entering Gaussian System, Link 0=g03
 Input=pph-for-resp.gjf
 Output=pph-for-resp.log
 Initial command:
 /opt/g03c02/g03/l1.exe /jobfs/z01/845417.lc0/Gau-31401.inp -scrdir=/jobfs/z01/845417.lc0/
 Entering Link 1 = /opt/g03c02/g03/l1.exe PID=     31402.
  
 Copyright (c) 1988,1990,1992,1993,1995,1998,2003,2004, Gaussian, Inc.
                  All Rights Reserved.
  
 This is the Gaussian(R) 03 program.  It is based on the
 the Gaussian(R) 98 system (copyright 1998, Gaussian, Inc.),
 the Gaussian(R) 94 system (copyright 1995, Gaussian, Inc.),
 the Gaussian 92(TM) system (copyright 1992, Gaussian, Inc.),
 the Gaussian 90(TM) system (copyright 1990, Gaussian, Inc.),
 the Gaussian 88(TM) system (copyright 1988, Gaussian, Inc.),
 the Gaussian 86(TM) system (copyright 1986, Carnegie Mellon
 University), and the Gaussian 82(TM) system (copyright 1983,
 Carnegie Mellon University). Gaussian is a federally registered
 trademark of Gaussian, Inc.
  
 This software contains proprietary and confidential information,
 including trade secrets, belonging to Gaussian, Inc.
  
 This software is provided under written license and may be
 used, copied, transmitted, or stored only in accord with that
 written license.
  
 The following legend is applicable only to US Government
 contracts under FAR:
  
                    RESTRICTED RIGHTS LEGEND
  
 Use, reproduction and disclosure by the US Government is
 subject to restrictions as set forth in subparagraphs (a)
 and (c) of the Commercial Computer Software - Restricted
 Rights clause in FAR 52.227-19.
  
 Gaussian, Inc.
 340 Quinnipiac St., Bldg. 40, Wallingford CT 06492
  
  
 ---------------------------------------------------------------
 Warning -- This program may not be used in any manner that
 competes with the business of Gaussian, Inc. or will provide
 assistance to any competitor of Gaussian, Inc.  The licensee
 of this program is prohibited from giving any competitor of
 Gaussian, Inc. access to this program.  By using this program,
 the user acknowledges that Gaussian, Inc. is engaged in the
 business of creating and licensing software in the field of
 computational chemistry and represents and warrants to the
 licensee that it is not a competitor of Gaussian, Inc. and that
 it will not use this program in any manner prohibited above.
 ---------------------------------------------------------------
  

 Cite this work as:
 Gaussian 03, Revision C.02,
 M. J. Frisch, G. W. Trucks, H. B. Schlegel, G. E. Scuseria, 
 M. A. Robb, J. R. Cheeseman, J. A. Montgomery, Jr., T. Vreven, 
 K. N. Kudin, J. C. Burant, J. M. Millam, S. S. Iyengar, J. Tomasi, 
 V. Barone, B. Mennucci, M. Cossi, G. Scalmani, N. Rega, 
 G. A. Petersson, H. Nakatsuji, M. Hada, M. Ehara, K. Toyota, 
 R. Fukuda, J. Hasegawa, M. Ishida, T. Nakajima, Y. Honda, O. Kitao, 
 H. Nakai, M. Klene, X. Li, J. E. Knox, H. P. Hratchian, J. B. Cross, 
 C. Adamo, J. Jaramillo, R. Gomperts, R. E. Stratmann, O. Yazyev, 
 A. J. Austin, R. Cammi, C. Pomelli, J. W. Ochterski, P. Y. Ayala, 
 K. Morokuma, G. A. Voth, P. Salvador, J. J. Dannenberg, 
 V. G. Zakrzewski, S. Dapprich, A. D. Daniels, M. C. Strain, 
 O. Farkas, D. K. Malick, A. D. Rabuck, K. Raghavachari, 
 J. B. Foresman, J. V. Ortiz, Q. Cui, A. G. Baboul, S. Clifford, 
 J. Cioslowski, B. B. Stefanov, G. Liu, A. Liashenko, P. Piskorz, 
 I. Komaromi, R. L. Martin, D. J. Fox, T. Keith, M. A. Al-Laham, 
 C. Y. Peng, A. Nanayakkara, M. Challacombe, P. M. W. Gill, 
 B. Johnson, W. Chen, M. W. Wong, C. Gonzalez, and J. A. Pople, 
 Gaussian, Inc., Wallingford CT, 2004.
 
 ******************************************
 Gaussian 03:  IA32L-G03RevC.02 12-Jun-2004
                21-Jun-2006 
 ******************************************
 %chk=GAUSSIAN_RESTART_FILE
 %nproc=1
 Will use up to    1 processors via shared memory.
 %MEM=900MB
 ----------------------------------
 # Opt HF/6-31g* Pop=MK iop(6/33=2)
 ----------------------------------
 1/18=20,38=1/1,3;
 2/9=110,17=6,18=5,40=1/2;
 3/5=1,6=6,7=1,11=9,16=1,25=1,30=1/1,2,3;
 4//1;
 5/5=2,38=5/2;
 6/7=2,8=2,9=2,10=2,15=8,20=1,28=1,33=2/1,2;
 7//1,2,3,16;
 1/18=20/3(1);
 99//99;
 2/9=110/2;
 3/5=1,6=6,7=1,11=9,16=1,25=1,30=1/1,2,3;
 4/5=5,16=3/1;
 5/5=2,38=5/2;
 7//1,2,3,16;
 1/18=20/3(-5);
 2/9=110/2;
 6/7=2,8=2,9=2,10=2,15=8,19=2,20=1,28=1,33=2/1,2;
 99/9=1/99;
 -----------------------------------------------------------
 For resp COMPLEX (SERINE PROTEASE/INHIBITOR) 26-JUN-96 1CGH
 -----------------------------------------------------------
 Symbolic Z-matrix:
 Charge = -1 Multiplicity = 1
 6                    -0.9792   -4.3508   -1.5291 
 6                     0.2208   -3.8008   -0.7481 
 8                     1.3018   -4.3918   -0.7681 
 7                     0.0458   -2.6738   -0.0591 
 6                     1.1468   -2.0808    0.7169 
 6                     1.7908   -3.1188    1.6259 
 8                     1.0758   -3.9388    2.2199 
 6                     0.6468   -0.9338    1.6079 
 8                     0.3158    0.2332    0.8519 
 1                    -0.8272   -2.2458   -0.0781 
 7                     3.1158   -3.0418    1.7549 
 6                     3.8508   -3.9698    2.5879 
 1                     3.5968   -2.3348    1.2809 
 6                    -0.1912    5.0732    0.8459 
 6                    -1.1312    3.9592    0.3769 
 8                    -2.3542    4.1482    0.3579 
 7                    -0.5572    2.8132   -0.0241 
 6                    -1.1212    1.9702   -0.3781 
 15                   -1.2282    0.5812    0.7669 
 8                    -2.1672   -0.6228    0.4189 
 8                    -1.8782    1.0472    2.0399 
 6                    -0.8362    1.2822   -1.7461 
 6                    -0.9992    2.0692   -3.0401 
 6                    -2.0882    2.9392   -3.2201 
 6                    -0.0692    1.9502   -4.0651 
 6                    -2.2402    3.6792   -4.4141 
 6                    -0.2122    2.6932   -5.2721 
 6                    -1.2942    3.5512   -5.4391 
 1                     0.4248    2.7322    0.0029 
 1                    -1.0552   -5.3826   -1.1882 
 1                     1.8692   -1.6955    0.0022 
 1                    -0.2411   -1.2747    2.14 
 1                     1.4264   -0.698     2.332 
 1                     4.7436   -3.4618    3.0061 
 1                     3.224    -4.2605    3.456 
 1                     0.7877    4.8718    0.4124 
 1                     0.0781    0.9679   -1.5476 
 1                    -2.7551    3.0317   -2.4984 
 1                     0.6936    1.3373   -3.9357 
 1                    -3.0089    4.2868   -4.5324 
 1                     0.447     2.6124   -6.0022 
 1                    -1.3898    4.0642   -6.2768 
 1                    -1.4873    0.4283   -1.9848 
 1                    -2.1537    2.1801   -0.6942 
 1                     4.202    -4.8275    2.2485 
 1                    -0.8064   -4.3973   -2.4552 
 1                    -1.8845   -3.9821   -1.6658 
 1                     0.01      5.1072    1.8113 
 1                    -0.3728    6.0421    0.7984 
 

 GradGradGradGradGradGradGradGradGradGradGradGradGradGradGradGradGradGrad
 Berny optimization.
 Initialization pass.
                           ----------------------------
                           !    Initial Parameters    !
                           ! (Angstroms and Degrees)  !
 --------------------------                            --------------------------
 ! Name  Definition              Value          Derivative Info.                !
 --------------------------------------------------------------------------------
 ! R1    R(1,2)                  1.5338         estimate D2E/DX2                !
 ! R2    R(1,30)                 1.0893         estimate D2E/DX2                !
 ! R3    R(1,46)                 0.9432         estimate D2E/DX2                !
 ! R4    R(1,47)                 0.987          estimate D2E/DX2                !
 ! R5    R(2,3)                  1.2322         estimate D2E/DX2                !
 ! R6    R(2,4)                  1.3325         estimate D2E/DX2                !
 ! R7    R(4,5)                  1.4717         estimate D2E/DX2                !
 ! R8    R(4,10)                 0.9725         estimate D2E/DX2                !
 ! R9    R(5,6)                  1.5226         estimate D2E/DX2                !
 ! R10   R(5,8)                  1.5361         estimate D2E/DX2                !
 ! R11   R(5,31)                 1.0868         estimate D2E/DX2                !
 ! R12   R(6,7)                  1.2395         estimate D2E/DX2                !
 ! R13   R(6,11)                 1.3335         estimate D2E/DX2                !
 ! R14   R(8,9)                  1.4293         estimate D2E/DX2                !
 ! R15   R(8,32)                 1.0898         estimate D2E/DX2                !
 ! R16   R(8,33)                 1.0898         estimate D2E/DX2                !
 ! R17   R(9,19)                 1.585          estimate D2E/DX2                !
 ! R18   R(11,12)                1.4475         estimate D2E/DX2                !
 ! R19   R(11,13)                0.9777         estimate D2E/DX2                !
 ! R20   R(12,34)                1.1091         estimate D2E/DX2                !
 ! R21   R(12,35)                1.1095         estimate D2E/DX2                !
 ! R22   R(12,45)                0.987          estimate D2E/DX2                !
 ! R23   R(14,15)                1.5312         estimate D2E/DX2                !
 ! R24   R(14,36)                1.0894         estimate D2E/DX2                !
 ! R25   R(14,48)                0.9867         estimate D2E/DX2                !
 ! R26   R(14,49)                0.9869         estimate D2E/DX2                !
 ! R27   R(15,16)                1.2377         estimate D2E/DX2                !
 ! R28   R(15,17)                1.343          estimate D2E/DX2                !
 ! R29   R(17,18)                1.0743         estimate D2E/DX2                !
 ! R30   R(17,29)                0.9857         estimate D2E/DX2                !
 ! R31   R(18,19)                1.8033         estimate D2E/DX2                !
 ! R32   R(18,22)                1.5576         estimate D2E/DX2                !
 ! R33   R(18,44)                1.1            estimate D2E/DX2                !
 ! R34   R(19,20)                1.566          estimate D2E/DX2                !
 ! R35   R(19,21)                1.5034         estimate D2E/DX2                !
 ! R36   R(22,23)                1.5233         estimate D2E/DX2                !
 ! R37   R(22,37)                0.987          estimate D2E/DX2                !
 ! R38   R(22,43)                1.1            estimate D2E/DX2                !
 ! R39   R(23,24)                1.4054         estimate D2E/DX2                !
 ! R40   R(23,25)                1.3891         estimate D2E/DX2                !
 ! R41   R(24,26)                1.4129         estimate D2E/DX2                !
 ! R42   R(24,38)                0.987          estimate D2E/DX2                !
 ! R43   R(25,27)                1.4246         estimate D2E/DX2                !
 ! R44   R(25,39)                0.987          estimate D2E/DX2                !
 ! R45   R(26,28)                1.4007         estimate D2E/DX2                !
 ! R46   R(26,40)                0.987          estimate D2E/DX2                !
 ! R47   R(27,28)                1.391          estimate D2E/DX2                !
 ! R48   R(27,41)                0.987          estimate D2E/DX2                !
 ! R49   R(28,42)                0.9869         estimate D2E/DX2                !
 ! A1    A(2,1,30)             103.5852         estimate D2E/DX2                !
 ! A2    A(2,1,46)             111.981          estimate D2E/DX2                !
 ! A3    A(2,1,47)             130.8577         estimate D2E/DX2                !
 ! A4    A(30,1,46)            105.8638         estimate D2E/DX2                !
 ! A5    A(30,1,47)            109.4619         estimate D2E/DX2                !
 ! A6    A(46,1,47)             92.8927         estimate D2E/DX2                !
 ! A7    A(1,2,3)              120.4068         estimate D2E/DX2                !
 ! A8    A(1,2,4)              117.6354         estimate D2E/DX2                !
 ! A9    A(3,2,4)              121.9578         estimate D2E/DX2                !
 ! A10   A(2,4,5)              121.0097         estimate D2E/DX2                !
 ! A11   A(2,4,10)             118.6889         estimate D2E/DX2                !
 ! A12   A(5,4,10)             120.3014         estimate D2E/DX2                !
 ! A13   A(4,5,6)              110.8853         estimate D2E/DX2                !
 ! A14   A(4,5,8)              111.297          estimate D2E/DX2                !
 ! A15   A(4,5,31)             107.0598         estimate D2E/DX2                !
 ! A16   A(6,5,8)              107.4833         estimate D2E/DX2                !
 ! A17   A(6,5,31)             110.6796         estimate D2E/DX2                !
 ! A18   A(8,5,31)             109.4566         estimate D2E/DX2                !
 ! A19   A(5,6,7)              119.5437         estimate D2E/DX2                !
 ! A20   A(5,6,11)             116.0173         estimate D2E/DX2                !
 ! A21   A(7,6,11)             124.402          estimate D2E/DX2                !
 ! A22   A(5,8,9)              112.225          estimate D2E/DX2                !
 ! A23   A(5,8,32)             108.3507         estimate D2E/DX2                !
 ! A24   A(5,8,33)             108.3074         estimate D2E/DX2                !
 ! A25   A(9,8,32)             108.9635         estimate D2E/DX2                !
 ! A26   A(9,8,33)             109.903          estimate D2E/DX2                !
 ! A27   A(32,8,33)            109.0316         estimate D2E/DX2                !
 ! A28   A(8,9,19)             115.6714         estimate D2E/DX2                !
 ! A29   A(6,11,12)            121.5462         estimate D2E/DX2                !
 ! A30   A(6,11,13)            118.9272         estimate D2E/DX2                !
 ! A31   A(12,11,13)           119.5238         estimate D2E/DX2                !
 ! A32   A(11,12,34)           109.3959         estimate D2E/DX2                !
 ! A33   A(11,12,35)           109.3525         estimate D2E/DX2                !
 ! A34   A(11,12,45)           122.6768         estimate D2E/DX2                !
 ! A35   A(34,12,35)           106.2456         estimate D2E/DX2                !
 ! A36   A(34,12,45)           103.9608         estimate D2E/DX2                !
 ! A37   A(35,12,45)           104.0274         estimate D2E/DX2                !
 ! A38   A(15,14,36)           107.1728         estimate D2E/DX2                !
 ! A39   A(15,14,48)           116.7387         estimate D2E/DX2                !
 ! A40   A(15,14,49)           125.9127         estimate D2E/DX2                !
 ! A41   A(36,14,48)           102.2675         estimate D2E/DX2                !
 ! A42   A(36,14,49)           109.1291         estimate D2E/DX2                !
 ! A43   A(48,14,49)            92.9108         estimate D2E/DX2                !
 ! A44   A(14,15,16)           120.0151         estimate D2E/DX2                !
 ! A45   A(14,15,17)           116.7371         estimate D2E/DX2                !
 ! A46   A(16,15,17)           123.2347         estimate D2E/DX2                !
 ! A47   A(15,17,18)           122.9305         estimate D2E/DX2                !
 ! A48   A(15,17,29)           119.1924         estimate D2E/DX2                !
 ! A49   A(18,17,29)           117.877          estimate D2E/DX2                !
 ! A50   A(17,18,19)           115.2367         estimate D2E/DX2                !
 ! A51   A(17,18,22)           122.6822         estimate D2E/DX2                !
 ! A52   A(17,18,44)           115.9597         estimate D2E/DX2                !
 ! A53   A(19,18,22)           103.1969         estimate D2E/DX2                !
 ! A54   A(19,18,44)           105.8872         estimate D2E/DX2                !
 ! A55   A(22,18,44)            90.209          estimate D2E/DX2                !
 ! A56   A(9,19,18)             98.3585         estimate D2E/DX2                !
 ! A57   A(9,19,20)            115.2905         estimate D2E/DX2                !
 ! A58   A(9,19,21)            116.3475         estimate D2E/DX2                !
 ! A59   A(18,19,20)           119.1225         estimate D2E/DX2                !
 ! A60   A(18,19,21)           108.9383         estimate D2E/DX2                !
 ! A61   A(20,19,21)            99.6268         estimate D2E/DX2                !
 ! A62   A(18,22,23)           119.8881         estimate D2E/DX2                !
 ! A63   A(18,22,37)            97.6733         estimate D2E/DX2                !
 ! A64   A(18,22,43)           115.1612         estimate D2E/DX2                !
 ! A65   A(23,22,37)           115.7533         estimate D2E/DX2                !
 ! A66   A(23,22,43)            98.8229         estimate D2E/DX2                !
 ! A67   A(37,22,43)           110.1669         estimate D2E/DX2                !
 ! A68   A(22,23,24)           120.766          estimate D2E/DX2                !
 ! A69   A(22,23,25)           120.7246         estimate D2E/DX2                !
 ! A70   A(24,23,25)           118.5078         estimate D2E/DX2                !
 ! A71   A(23,24,26)           121.0508         estimate D2E/DX2                !
 ! A72   A(23,24,38)           119.2042         estimate D2E/DX2                !
 ! A73   A(26,24,38)           119.745          estimate D2E/DX2                !
 ! A74   A(23,25,27)           120.884          estimate D2E/DX2                !
 ! A75   A(23,25,39)           118.2842         estimate D2E/DX2                !
 ! A76   A(27,25,39)           120.8318         estimate D2E/DX2                !
 ! A77   A(24,26,28)           119.86           estimate D2E/DX2                !
 ! A78   A(24,26,40)           120.4983         estimate D2E/DX2                !
 ! A79   A(28,26,40)           119.6417         estimate D2E/DX2                !
 ! A80   A(25,27,28)           120.1016         estimate D2E/DX2                !
 ! A81   A(25,27,41)           121.1327         estimate D2E/DX2                !
 ! A82   A(28,27,41)           118.7658         estimate D2E/DX2                !
 ! A83   A(26,28,27)           119.5957         estimate D2E/DX2                !
 ! A84   A(26,28,42)           120.5444         estimate D2E/DX2                !
 ! A85   A(27,28,42)           119.8599         estimate D2E/DX2                !
 ! D1    D(30,1,2,3)            52.7943         estimate D2E/DX2                !
 ! D2    D(30,1,2,4)          -127.2473         estimate D2E/DX2                !
 ! D3    D(46,1,2,3)           -60.8343         estimate D2E/DX2                !
 ! D4    D(46,1,2,4)           119.1241         estimate D2E/DX2                !
 ! D5    D(47,1,2,3)          -175.737          estimate D2E/DX2                !
 ! D6    D(47,1,2,4)             4.2215         estimate D2E/DX2                !
 ! D7    D(1,2,4,5)            179.9762         estimate D2E/DX2                !
 ! D8    D(1,2,4,10)            -0.0858         estimate D2E/DX2                !
 ! D9    D(3,2,4,5)             -0.0661         estimate D2E/DX2                !
 ! D10   D(3,2,4,10)           179.872          estimate D2E/DX2                !
 ! D11   D(2,4,5,6)            -50.7081         estimate D2E/DX2                !
 ! D12   D(2,4,5,8)           -170.3032         estimate D2E/DX2                !
 ! D13   D(2,4,5,31)            70.1201         estimate D2E/DX2                !
 ! D14   D(10,4,5,6)           129.3549         estimate D2E/DX2                !
 ! D15   D(10,4,5,8)             9.7597         estimate D2E/DX2                !
 ! D16   D(10,4,5,31)         -109.817          estimate D2E/DX2                !
 ! D17   D(4,5,6,7)            -40.1613         estimate D2E/DX2                !
 ! D18   D(4,5,6,11)           141.9558         estimate D2E/DX2                !
 ! D19   D(8,5,6,7)             81.6928         estimate D2E/DX2                !
 ! D20   D(8,5,6,11)           -96.19           estimate D2E/DX2                !
 ! D21   D(31,5,6,7)          -158.824          estimate D2E/DX2                !
 ! D22   D(31,5,6,11)           23.2931         estimate D2E/DX2                !
 ! D23   D(4,5,8,9)            -72.4183         estimate D2E/DX2                !
 ! D24   D(4,5,8,32)            47.9387         estimate D2E/DX2                !
 ! D25   D(4,5,8,33)           166.0784         estimate D2E/DX2                !
 ! D26   D(6,5,8,9)            165.9844         estimate D2E/DX2                !
 ! D27   D(6,5,8,32)           -73.6586         estimate D2E/DX2                !
 ! D28   D(6,5,8,33)            44.4811         estimate D2E/DX2                !
 ! D29   D(31,5,8,9)            45.7234         estimate D2E/DX2                !
 ! D30   D(31,5,8,32)          166.0804         estimate D2E/DX2                !
 ! D31   D(31,5,8,33)          -75.7799         estimate D2E/DX2                !
 ! D32   D(5,6,11,12)         -179.9109         estimate D2E/DX2                !
 ! D33   D(5,6,11,13)            0.7082         estimate D2E/DX2                !
 ! D34   D(7,6,11,12)            2.3215         estimate D2E/DX2                !
 ! D35   D(7,6,11,13)         -177.0594         estimate D2E/DX2                !
 ! D36   D(5,8,9,19)           110.0516         estimate D2E/DX2                !
 ! D37   D(32,8,9,19)           -9.9496         estimate D2E/DX2                !
 ! D38   D(33,8,9,19)         -129.3634         estimate D2E/DX2                !
 ! D39   D(8,9,19,18)         -174.78           estimate D2E/DX2                !
 ! D40   D(8,9,19,20)          -46.939          estimate D2E/DX2                !
 ! D41   D(8,9,19,21)           69.1909         estimate D2E/DX2                !
 ! D42   D(6,11,12,34)        -149.0019         estimate D2E/DX2                !
 ! D43   D(6,11,12,35)         -33.0251         estimate D2E/DX2                !
 ! D44   D(6,11,12,45)          89.0133         estimate D2E/DX2                !
 ! D45   D(13,11,12,34)         30.3754         estimate D2E/DX2                !
 ! D46   D(13,11,12,35)        146.3522         estimate D2E/DX2                !
 ! D47   D(13,11,12,45)        -91.6094         estimate D2E/DX2                !
 ! D48   D(36,14,15,16)       -157.151          estimate D2E/DX2                !
 ! D49   D(36,14,15,17)         21.5756         estimate D2E/DX2                !
 ! D50   D(48,14,15,16)         88.9763         estimate D2E/DX2                !
 ! D51   D(48,14,15,17)        -92.2971         estimate D2E/DX2                !
 ! D52   D(49,14,15,16)        -26.8131         estimate D2E/DX2                !
 ! D53   D(49,14,15,17)        151.9135         estimate D2E/DX2                !
 ! D54   D(14,15,17,18)       -179.5912         estimate D2E/DX2                !
 ! D55   D(14,15,17,29)          0.3467         estimate D2E/DX2                !
 ! D56   D(16,15,17,18)         -0.9095         estimate D2E/DX2                !
 ! D57   D(16,15,17,29)        179.0284         estimate D2E/DX2                !
 ! D58   D(15,17,18,19)       -106.1012         estimate D2E/DX2                !
 ! D59   D(15,17,18,22)        126.8672         estimate D2E/DX2                !
 ! D60   D(15,17,18,44)         18.3756         estimate D2E/DX2                !
 ! D61   D(29,17,18,19)         73.9601         estimate D2E/DX2                !
 ! D62   D(29,17,18,22)        -53.0715         estimate D2E/DX2                !
 ! D63   D(29,17,18,44)       -161.5631         estimate D2E/DX2                !
 ! D64   D(17,18,19,9)         -62.0993         estimate D2E/DX2                !
 ! D65   D(17,18,19,20)        172.7215         estimate D2E/DX2                !
 ! D66   D(17,18,19,21)         59.5465         estimate D2E/DX2                !
 ! D67   D(22,18,19,9)          74.2595         estimate D2E/DX2                !
 ! D68   D(22,18,19,20)        -50.9197         estimate D2E/DX2                !
 ! D69   D(22,18,19,21)       -164.0948         estimate D2E/DX2                !
 ! D70   D(44,18,19,9)         168.3099         estimate D2E/DX2                !
 ! D71   D(44,18,19,20)         43.1307         estimate D2E/DX2                !
 ! D72   D(44,18,19,21)        -70.0444         estimate D2E/DX2                !
 ! D73   D(17,18,22,23)        -62.3726         estimate D2E/DX2                !
 ! D74   D(17,18,22,37)         63.2974         estimate D2E/DX2                !
 ! D75   D(17,18,22,43)        179.8889         estimate D2E/DX2                !
 ! D76   D(19,18,22,23)        165.5035         estimate D2E/DX2                !
 ! D77   D(19,18,22,37)        -68.8265         estimate D2E/DX2                !
 ! D78   D(19,18,22,43)         47.765          estimate D2E/DX2                !
 ! D79   D(44,18,22,23)         59.1223         estimate D2E/DX2                !
 ! D80   D(44,18,22,37)       -175.2077         estimate D2E/DX2                !
 ! D81   D(44,18,22,43)        -58.6162         estimate D2E/DX2                !
 ! D82   D(18,22,23,24)        -41.5382         estimate D2E/DX2                !
 ! D83   D(18,22,23,25)        137.9945         estimate D2E/DX2                !
 ! D84   D(37,22,23,24)       -158.1702         estimate D2E/DX2                !
 ! D85   D(37,22,23,25)         21.3624         estimate D2E/DX2                !
 ! D86   D(43,22,23,24)         84.2982         estimate D2E/DX2                !
 ! D87   D(43,22,23,25)        -96.1692         estimate D2E/DX2                !
 ! D88   D(22,23,24,26)        179.5498         estimate D2E/DX2                !
 ! D89   D(22,23,24,38)         -0.4516         estimate D2E/DX2                !
 ! D90   D(25,23,24,26)          0.007          estimate D2E/DX2                !
 ! D91   D(25,23,24,38)       -179.9944         estimate D2E/DX2                !
 ! D92   D(22,23,25,27)       -179.4615         estimate D2E/DX2                !
 ! D93   D(22,23,25,39)          0.543          estimate D2E/DX2                !
 ! D94   D(24,23,25,27)          0.0815         estimate D2E/DX2                !
 ! D95   D(24,23,25,39)       -179.914          estimate D2E/DX2                !
 ! D96   D(23,24,26,28)         -0.0911         estimate D2E/DX2                !
 ! D97   D(23,24,26,40)        179.9053         estimate D2E/DX2                !
 ! D98   D(38,24,26,28)        179.9103         estimate D2E/DX2                !
 ! D99   D(38,24,26,40)         -0.0933         estimate D2E/DX2                !
 ! D100  D(23,25,27,28)         -0.0873         estimate D2E/DX2                !
 ! D101  D(23,25,27,41)        179.916          estimate D2E/DX2                !
 ! D102  D(39,25,27,28)        179.908          estimate D2E/DX2                !
 ! D103  D(39,25,27,41)         -0.0887         estimate D2E/DX2                !
 ! D104  D(24,26,28,27)          0.0853         estimate D2E/DX2                !
 ! D105  D(24,26,28,42)       -179.9166         estimate D2E/DX2                !
 ! D106  D(40,26,28,27)       -179.9112         estimate D2E/DX2                !
 ! D107  D(40,26,28,42)          0.0869         estimate D2E/DX2                !
 ! D108  D(25,27,28,26)          0.0019         estimate D2E/DX2                !
 ! D109  D(25,27,28,42)       -179.9962         estimate D2E/DX2                !
 ! D110  D(41,27,28,26)        179.9986         estimate D2E/DX2                !
 ! D111  D(41,27,28,42)          0.0005         estimate D2E/DX2                !
 --------------------------------------------------------------------------------
 Trust Radius=3.00D-01 FncErr=1.00D-07 GrdErr=1.00D-07
 Number of steps in this run= 255 maximum allowed number of steps= 294.
 GradGradGradGradGradGradGradGradGradGradGradGradGradGradGradGradGradGrad

                          Input orientation:                          
 ---------------------------------------------------------------------
 Center     Atomic     Atomic              Coordinates (Angstroms)
 Number     Number      Type              X           Y           Z
 ---------------------------------------------------------------------
    1          6             0       -0.979200   -4.350800   -1.529100
    2          6             0        0.220800   -3.800800   -0.748100
    3          8             0        1.301800   -4.391800   -0.768100
    4          7             0        0.045800   -2.673800   -0.059100
    5          6             0        1.146800   -2.080800    0.716900
    6          6             0        1.790800   -3.118800    1.625900
    7          8             0        1.075800   -3.938800    2.219900
    8          6             0        0.646800   -0.933800    1.607900
    9          8             0        0.315800    0.233200    0.851900
   10          1             0       -0.827200   -2.245800   -0.078100
   11          7             0        3.115800   -3.041800    1.754900
   12          6             0        3.850800   -3.969800    2.587900
   13          1             0        3.596800   -2.334800    1.280900
   14          6             0       -0.191200    5.073200    0.845900
   15          6             0       -1.131200    3.959200    0.376900
   16          8             0       -2.354200    4.148200    0.357900
   17          7             0       -0.557200    2.813200   -0.024100
   18          6             0       -1.121200    1.970200   -0.378100
   19         15             0       -1.228200    0.581200    0.766900
   20          8             0       -2.167200   -0.622800    0.418900
   21          8             0       -1.878200    1.047200    2.039900
   22          6             0       -0.836200    1.282200   -1.746100
   23          6             0       -0.999200    2.069200   -3.040100
   24          6             0       -2.088200    2.939200   -3.220100
   25          6             0       -0.069200    1.950200   -4.065100
   26          6             0       -2.240200    3.679200   -4.414100
   27          6             0       -0.212200    2.693200   -5.272100
   28          6             0       -1.294200    3.551200   -5.439100
   29          1             0        0.424800    2.732200    0.002900
   30          1             0       -1.055200   -5.382600   -1.188200
   31          1             0        1.869200   -1.695500    0.002200
   32          1             0       -0.241100   -1.274700    2.140000
   33          1             0        1.426400   -0.698000    2.332000
   34          1             0        4.743600   -3.461800    3.006100
   35          1             0        3.224000   -4.260500    3.456000
   36          1             0        0.787700    4.871800    0.412400
   37          1             0        0.078100    0.967900   -1.547600
   38          1             0       -2.755100    3.031700   -2.498400
   39          1             0        0.693600    1.337300   -3.935700
   40          1             0       -3.008900    4.286800   -4.532400
   41          1             0        0.447000    2.612400   -6.002200
   42          1             0       -1.389800    4.064200   -6.276800
   43          1             0       -1.487300    0.428300   -1.984800
   44          1             0       -2.153700    2.180100   -0.694200
   45          1             0        4.202000   -4.827500    2.248500
   46          1             0       -0.806400   -4.397300   -2.455200
   47          1             0       -1.884500   -3.982100   -1.665800
   48          1             0        0.010000    5.107200    1.811300
   49          1             0       -0.372800    6.042100    0.798400
 ---------------------------------------------------------------------
                    Distance matrix (angstroms):
                    1          2          3          4          5
     1  C    0.000000
     2  C    1.533773   0.000000
     3  O    2.404946   1.232170   0.000000
     4  N    2.454354   1.332470   2.243154   0.000000
     5  C    3.836312   2.441741   2.751358   1.471743   0.000000
     6  C    4.375471   2.926756   2.755156   2.466227   1.522649
     7  O    4.295087   3.091778   3.030582   2.802671   2.390861
     8  C    4.915337   3.735224   4.246430   2.483483   1.536063
     9  O    5.325340   4.340758   4.998722   3.058344   2.462394
    10  H    2.561158   1.991288   3.100654   0.972458   2.134462
    11  N    5.409913   3.901553   3.388012   3.584818   2.424443
    12  C    6.357967   4.932987   4.235354   4.812925   3.792173
    13  H    5.735864   4.202782   3.700902   3.810528   2.526878
    14  C    9.750556   9.025434   9.717009   7.803282   7.279190
    15  C    8.527136   7.956829   8.773239   6.750712   6.464247
    16  O    8.813875   8.428550   9.357661   7.243865   7.154462
    17  N    7.332531   6.698840   7.478064   5.520145   5.234877
    18  C    6.426508   5.936523   6.818950   4.798998   4.770058
    19  P    5.445938   4.857649   5.786869   3.591709   3.567824
    20  O    4.370816   4.142960   5.258164   3.054907   3.632790
    21  O    6.533327   5.973429   6.897825   4.685447   4.548114
    22  C    5.638992   5.286789   6.141808   4.390197   4.616105
    23  C    6.595447   6.418611   7.225033   5.698634   5.995237
    24  C    7.565280   7.541211   8.440851   6.786136   7.153013
    25  C    6.852882   6.645343   7.278105   6.119039   6.371432
    26  C    8.625210   8.685993   9.538350   8.034453   8.424757
    27  C    8.013506   7.926292   8.530852   7.486429   7.778565
    28  C    8.822071   8.851701   9.573333   8.336104   8.693345
    29  H    7.381540   6.579187   7.219068   5.419624   4.918948
    30  H    1.089312   2.079412   2.591065   3.134432   4.402283
    31  H    4.184361   2.777132   2.861003   2.070173   1.086791
    32  H    4.844531   3.864667   4.533641   2.622181   2.145059
    33  H    5.834205   4.535180   4.823930   3.395173   2.144495
    34  H    7.355868   5.887670   5.191866   5.664426   4.481581
    35  H    6.521217   5.187002   4.642748   4.997449   4.070445
    36  H    9.588937   8.768245   9.352655   7.596631   6.968524
    37  H    5.422803   4.837361   5.552607   3.934292   3.945206
    38  H    7.654716   7.655233   8.634855   6.807933   7.190315
    39  H    6.398786   6.065015   6.574662   5.615745   5.790983
    40  H    9.367370   9.495323  10.395681   8.819952   9.239660
    41  H    8.398144   8.293725   8.785517   7.964001   8.225701
    42  H    9.670650   9.747758  10.444828   9.280161   9.649207
    43  H    4.827590   4.725708   5.700246   3.960018   4.531363
    44  H    6.687986   6.435240   7.425349   5.366703   5.571335
    45  H    6.429801   5.087600   4.207240   5.218950   4.384565
    46  H    0.943230   2.079698   2.700156   3.072132   4.386728
    47  H    0.987013   2.303765   3.335600   2.831818   4.298951
    48  H   10.079214   9.270784   9.927389   8.002727   7.359169
    49  H   10.667584   9.981318  10.682906   8.767978   8.264220
                    6          7          8          9         10
     6  C    0.000000
     7  O    1.239541   0.000000
     8  C    2.466432   3.096548   0.000000
     9  O    3.743074   4.455851   1.429331   0.000000
    10  H    3.243404   3.430519   2.595499   2.883885   0.000000
    11  N    1.333490   2.276496   3.249805   4.402390   4.420493
    12  C    2.427601   2.799466   4.521428   5.759786   5.653620
    13  H    1.998829   3.132088   3.282108   4.188511   4.628885
    14  C    8.464372   9.203766   6.112850   4.866486   7.404460
    15  C    7.758619   8.405112   5.349588   4.025234   6.229082
    16  O    8.461568   8.979505   6.032846   4.764469   6.588252
    17  N    6.589706   7.300118   4.260640   2.861102   5.066488
    18  C    6.196263   6.818555   3.937415   2.568081   4.236873
    19  P    4.852035   5.277312   2.553063   1.585013   2.977710
    20  O    4.832456   4.975591   3.070674   2.661863   2.162577
    21  O    5.566733   5.798165   3.238304   2.624419   4.053933
    22  C    6.135170   6.829622   4.284771   3.029374   3.902447
    23  C    7.514719   8.250411   5.773320   4.499754   5.236626
    24  C    8.673507   9.322627   6.766826   5.448196   6.192456
    25  C    7.844861   8.688646   6.404142   5.222375   5.837564
    26  C    9.947028  10.632015   8.116589   6.792555   7.476837
    27  C    9.239792  10.088232   7.824795   6.620707   7.193718
    28  C   10.194133  10.971658   8.575717   7.292318   7.909717
    29  H    6.223687   7.059825   4.008100   2.641530   5.133668
    30  H    4.598224   4.270933   5.523296   6.130160   3.335239
    31  H    2.160632   3.252702   2.157017   2.618191   2.753153
    32  H    2.791706   2.972884   1.089821   2.059879   2.491288
    33  H    2.547869   3.261636   1.089816   2.071536   3.644582
    34  H    3.277442   3.781322   5.012935   6.156218   6.482651
    35  H    2.589750   2.499239   4.596125   5.952504   5.741176
    36  H    8.144230   8.998707   5.929086   4.683210   7.314966
    37  H    5.450281   6.266192   3.727876   2.520691   3.647858
    38  H    8.689287   9.248028   6.645285   5.337278   6.117733
    39  H    7.210553   8.116324   5.990959   4.927767   5.480193
    40  H   10.761259  11.399071   8.849977   7.515051   8.202162
    41  H    9.635370  10.531692   8.398159   7.256479   7.766637
    42  H   11.142907  11.929841   9.554906   8.270671   8.863211
    43  H    6.030341   6.581835   4.395133   3.366913   3.349932
    44  H    7.001449   7.507502   4.779000   3.504180   4.661306
    45  H    3.020128   3.250190   5.311376   6.531748   6.113190
    46  H    5.003537   5.060579   5.533209   5.799808   3.206242
    47  H    5.008833   4.885071   5.139720   5.380417   2.579421
    48  H    8.418592   9.117730   6.077875   4.976931   7.637889
    49  H    9.449233  10.185159   7.096341   5.849816   8.346497
                   11         12         13         14         15
    11  N    0.000000
    12  C    1.447514   0.000000
    13  H    0.977694   2.108552   0.000000
    14  C    8.809980  10.057245   8.331664   0.000000
    15  C    8.303607   9.621740   7.923739   1.531195   0.000000
    16  O    9.141587  10.458339   8.848481   2.402569   1.237664
    17  N    7.137002   8.500712   6.742451   2.449175   1.342979
    18  C    6.900870   8.294669   6.598851   3.462901   2.127498
    19  P    5.742178   7.058603   5.661084   4.610821   3.401822
    20  O    5.962092   7.219646   6.074346   6.044115   4.697849
    21  O    6.460742   7.634922   6.479941   4.525514   3.435596
    22  C    6.824389   8.266500   6.472782   4.637475   3.429356
    23  C    8.126966   9.574257   7.693470   4.977738   3.907098
    24  C    9.359733  10.804576   8.966231   4.968392   3.859360
    25  C    8.302812   9.730119   7.770489   5.821163   4.989518
    26  C   10.578995  12.026449  10.132709   5.814571   4.925643
    27  C    9.661498  11.076242   9.095662   6.564660   5.861614
    28  C   10.708379  12.143690  10.184561   6.560055   5.832571
    29  H    6.606819   7.958424   6.113048   2.563276   2.016567
    30  H    5.615908   6.350100   6.084952  10.686806   9.472304
    31  H    2.537418   3.973037   2.242405   7.125474   6.412366
    32  H    3.813099   4.920145   4.073247   6.478659   5.594150
    33  H    2.946271   4.080181   2.914543   6.175101   5.661559
    34  H    2.095623   1.109075   2.358303  10.092816   9.823299
    35  H    2.095395   1.109496   2.928884  10.275902   9.798576
    36  H    8.357477   9.606731   7.783342   1.089371   2.125153
    37  H    6.017626   7.464349   5.593701   4.759711   3.756858
    38  H    9.457559  10.887119   9.133951   4.682483   3.429965
    39  H    7.578027   8.982794   7.008980   6.132171   5.366822
    40  H   11.434617  12.881211  11.012507   6.122415   5.266337
    41  H    9.963186  11.344648   9.350913   7.304746   6.708018
    42  H   11.632019  13.061085  11.087480   7.292981   6.659551
    43  H    6.871352   8.291452   6.644365   5.591765   4.262826
    44  H    7.812423   9.200406   7.573215   3.820123   2.314726
    45  H    2.147602   0.987007   2.741545  10.922058  10.447584
    46  H    5.911512   6.877872   6.131926  10.048189   8.829348
    47  H    6.130934   7.140573   6.437491   9.548527   8.234338
    48  H    8.720973   9.886697   8.278274   0.986729   2.162809
    49  H    9.777651  11.012686   9.282402   0.986915   2.256392
                   16         17         18         19         20
    16  O    0.000000
    17  N    2.270982   0.000000
    18  C    2.608768   1.074272   0.000000
    19  P    3.762798   2.461249   1.803273   0.000000
    20  O    4.775053   3.820268   2.907400   1.566027   0.000000
    21  O    3.559761   3.020578   2.696609   1.503391   2.345221
    22  C    3.865889   2.321010   1.557560   2.638226   3.176131
    23  C    4.207692   3.137699   2.666633   4.093878   4.536052
    24  C    3.786096   3.546019   3.154523   4.711256   5.092780
    25  C    5.441999   4.160841   3.834198   5.154189   5.579264
    26  C    4.796347   4.780643   4.523509   6.120826   6.470736
    27  C    6.196942   5.260697   5.029935   6.477833   6.870616
    28  C    5.923278   5.514530   5.305018   6.880385   7.245728
    29  H    3.139096   0.985705   1.765197   2.818316   4.259994
    30  H    9.742380   8.293025   7.397586   6.278476   5.145387
    31  H    7.218896   5.120204   4.745996   3.919441   4.197243
    32  H    6.086782   4.636181   4.200569   2.510804   2.664023
    33  H    6.455669   4.670589   4.577576   3.336584   4.071802
    34  H   10.737962   8.755354   8.680744   7.551309   7.906496
    35  H   10.555604   8.743329   8.508978   7.106012   7.177874
    36  H    3.224609   2.497423   3.562032   4.753817   6.238758
    37  H    4.434109   2.475841   1.952090   2.685678   3.382133
    38  H    3.092853   3.316725   2.879598   4.358734   4.712922
    39  H    5.968689   4.363874   4.043585   5.136093   5.566750
    40  H    4.935876   5.339204   5.117446   6.707082   7.023390
    41  H    7.117322   6.065181   5.873855   7.263111   7.650561
    42  H    6.704951   6.430745   6.265113   7.859460   8.210038
    43  H    4.480783   3.224466   2.256761   2.768098   2.710138
    44  H    2.240654   1.843546   1.100015   2.355386   3.015862
    45  H   11.274809   9.284126   9.024645   7.806167   7.848162
    46  H    9.128789   7.613387   6.705110   5.945192   4.935492
    47  H    8.391529   7.115687   6.137644   5.212722   3.963684
    48  H    2.936238   2.992131   3.989217   4.807139   6.285847
    49  H    2.776120   3.337110   4.304024   5.527579   6.912654
                   21         22         23         24         25
    21  O    0.000000
    22  C    3.933800   0.000000
    23  C    5.255809   1.523277   0.000000
    24  C    5.593868   2.546729   1.405426   0.000000
    25  C    6.431090   2.532247   1.389131   2.401772   0.000000
    26  C    6.979440   3.851629   2.453580   1.412919   2.797228
    27  C    7.677904   3.848763   2.447564   2.791164   1.424552
    28  C    7.908635   4.358483   2.835234   2.434942   2.439611
    29  H    3.506052   2.598388   3.424499   4.092157   4.171832
    30  H    7.241567   6.691694   7.678671   8.628329   7.938432
    31  H    5.071255   4.386620   5.626391   6.893814   5.795813
    32  H    2.842769   4.689739   6.212070   7.063951   6.995198
    33  H    3.748523   5.066700   6.511558   7.510489   7.083267
    34  H    8.069254   8.730585  10.006410  11.243303  10.121989
    35  H    7.497297   8.617923  10.004991  11.163577  10.294897
    36  H    4.937949   4.492371   4.792425   5.020040   5.414613
    37  H    4.086998   0.986981   2.144993   3.372853   2.706366
    38  H    5.030245   2.703495   2.074375   0.986997   3.292150
    39  H    6.511997   2.671642   2.050207   3.288857   0.987043
    40  H    7.414082   4.638072   3.344189   2.094241   3.784165
    41  H    8.516559   4.640089   3.340748   3.778110   2.111238
    42  H    8.860492   5.345394   3.822149   3.331186   3.332356
    43  H    4.090727   1.100025   2.011082   2.862109   2.941910
    44  H    2.972317   1.910111   2.616948   2.638313   3.970008
    45  H    8.457213   8.869539  10.128487  11.392710  10.200094
    46  H    7.141237   5.723673   6.495760   7.486809   6.589841
    47  H    6.247088   5.368262   6.268228   7.096600   6.651627
    48  H    4.483431   5.291670   5.812401   5.866656   6.671207
    49  H    5.362516   5.417183   5.559712   5.359004   6.363132
                   26         27         28         29         30
    26  C    0.000000
    27  C    2.412705   0.000000
    28  C    1.400687   1.390963   0.000000
    29  H    5.244895   5.313465   5.765508   0.000000
    30  H    9.691588   9.088863   9.896467   8.334213   0.000000
    31  H    8.079497   7.170157   8.194065   4.657340   4.854263
    32  H    8.455398   8.407395   9.046606   4.589757   5.349254
    33  H    8.838196   8.485728   9.265385   4.265464   6.363617
    34  H   12.442938  11.444325  12.528312   8.126308   7.409973
    35  H   12.443263  11.676521  12.671211   8.285968   6.413989
    36  H    5.821132   6.169249   6.349673   2.208455  10.540916
    37  H    4.576296   4.114953   4.868308   2.374238   6.460835
    38  H    2.086692   3.778139   3.324429   4.056842   8.683705
    39  H    3.784250   2.108294   3.333604   4.186952   7.467537
    40  H    0.986951   3.302764   2.074466   5.897120  10.416233
    41  H    3.298661   0.986975   2.056746   6.006336   9.452578
    42  H    2.083520   2.067802   0.986940   6.670954  10.735355
    43  H    4.127555   4.190703   4.660685   3.593749   5.881143
    44  H    4.011538   4.998986   5.013256   2.727531   7.658013
    45  H   12.579989  11.515447  12.629728   8.744085   6.305331
    46  H    8.433441   7.652659   8.504132   7.641196   1.624194
    47  H    8.147097   7.769274   8.446115   7.293782   1.696243
    48  H    6.771867   7.486743   7.529301   3.013801  10.962096
    49  H    6.020020   6.934832   6.779378   3.496344  11.616196
                   31         32         33         34         35
    31  H    0.000000
    32  H    3.033254   0.000000
    33  H    2.572751   1.774825   0.000000
    34  H    4.517234   5.511875   4.369991   0.000000
    35  H    4.510371   4.759598   4.145618   1.774688   0.000000
    36  H    6.668383   6.467031   5.925831   9.582553   9.929651
    37  H    3.564214   4.327764   4.432204   7.881961   7.891062
    38  H    7.069906   6.810289   7.397862  11.344407  11.152609
    39  H    5.107540   6.679097   6.630498   9.360686   9.611218
    40  H    8.952451   9.116574   9.572884  13.303046  13.255939
    41  H    7.525522   9.048671   9.020912  11.683584  12.016906
    42  H    9.122558  10.033239  10.233326  13.432479  13.613052
    43  H    4.441260   4.633271   5.328505   8.880657   8.589732
    44  H    5.629296   4.860697   5.500769   9.648627   9.360830
    45  H    4.505246   5.689929   4.976314   1.653005   1.654095
    46  H    4.527402   5.584448   6.448837   7.842414   7.155776
    47  H    4.701173   4.951252   6.142457   8.125827   7.239276
    48  H    7.280535   6.395291   5.998138   9.862164  10.039354
    49  H    8.095119   7.439946   7.142688  11.017060  11.231357
                   36         37         38         39         40
    36  H    0.000000
    37  H    4.425558   0.000000
    38  H    4.940664   3.631847   0.000000
    39  H    5.604241   2.493656   4.102481   0.000000
    40  H    6.261585   5.427126   2.403507   4.771175   0.000000
    41  H    6.809410   4.762765   4.765068   2.440720   4.111833
    42  H    7.080898   5.840132   4.148061   4.154189   2.390391
    43  H    5.537769   1.712539   2.940883   3.064085   4.867603
    44  H    4.137831   2.679301   2.083757   4.395993   4.461091
    45  H   10.445340   8.062480  11.519606   9.410524  13.455413
    46  H    9.832624   5.512844   7.680452   6.109625   9.196704
    47  H    9.478983   5.326187   7.116499   6.332066   8.823626
    48  H    1.617761   5.331102   5.525124   6.907059   7.073142
    49  H    1.692737   5.608434   5.060311   6.758998   6.200607
                   41         42         43         44         45
    41  H    0.000000
    42  H    2.357321   0.000000
    43  H    4.965009   5.625881   0.000000
    44  H    5.926668   5.941279   2.275641   0.000000
    45  H   11.727156  13.528167   8.826800   9.907616   0.000000
    46  H    7.955383   9.302793   4.896051   6.941075   6.884325
    47  H    8.229683   9.287034   4.439725   6.244132   7.285735
    48  H    8.213755   8.274337   6.208413   4.418941  10.791769
    49  H    7.660488   7.416524   6.364202   4.507161  11.881910
                   46         47         48         49
    46  H    0.000000
    47  H    1.399229   0.000000
    48  H   10.450122   9.914370   0.000000
    49  H   10.943263  10.432742   1.430573   0.000000
 Stoichiometry    C16H23N3O6P(1-)
 Framework group  C1[X(C16H23N3O6P)]
 Deg. of freedom   141
 Full point group                 C1      NOp   1
 Largest Abelian subgroup         C1      NOp   1
 Largest concise Abelian subgroup C1      NOp   1
                         Standard orientation:                         
 ---------------------------------------------------------------------
 Center     Atomic     Atomic              Coordinates (Angstroms)
 Number     Number      Type              X           Y           Z
 ---------------------------------------------------------------------
    1          6             0        2.970984    3.068236   -1.939121
    2          6             0        3.274855    2.132551   -0.762423
    3          8             0        4.131806    2.435010    0.069680
    4          7             0        2.582038    0.997303   -0.680625
    5          6             0        2.813653    0.045135    0.417445
    6          6             0        4.296387   -0.271602    0.557585
    7          8             0        4.987760   -0.423532   -0.459951
    8          6             0        2.079802   -1.281364    0.169745
    9          8             0        0.666079   -1.157063    0.339806
   10          1             0        1.915410    0.807060   -1.362599
   11          7             0        4.749891   -0.409037    1.804037
   12          6             0        6.139785   -0.708701    2.075503
   13          1             0        4.123406   -0.313106    2.548483
   14          6             0       -3.524125   -3.404563    1.375963
   15          6             0       -3.133368   -2.480744    0.219060
   16          8             0       -3.723631   -2.563299   -0.865646
   17          7             0       -2.159791   -1.587924    0.461157
   18          6             0       -1.812462   -0.888247   -0.276322
   19         15             0       -0.196521   -1.258065   -0.986085
   20          8             0        0.322221   -0.399585   -2.188732
   21          8             0       -0.250664   -2.607962   -1.645653
   22          6             0       -1.742907    0.645427   -0.013645
   23          6             0       -3.019142    1.424239    0.277993
   24          6             0       -4.197785    1.169227   -0.443803
   25          6             0       -3.046487    2.396008    1.270264
   26          6             0       -5.387401    1.881418   -0.171887
   27          6             0       -4.241158    3.118403    1.553552
   28          6             0       -5.401723    2.857519    0.832576
   29          1             0       -1.739336   -1.564901    1.352393
   30          1             0        3.949139    3.244868   -2.384781
   31          1             0        2.432204    0.505923    1.324796
   32          1             0        2.286847   -1.602643   -0.850854
   33          1             0        2.472936   -2.024713    0.862982
   34          1             0        6.212580   -1.306517    3.006826
   35          1             0        6.543328   -1.348363    1.263734
   36          1             0       -3.206853   -2.917857    2.297475
   37          1             0       -1.077454    0.624298    0.714954
   38          1             0       -4.189956    0.480845   -1.151074
   39          1             0       -2.216540    2.573321    1.774251
   40          1             0       -6.210141    1.696680   -0.684765
   41          1             0       -4.265045    3.808716    2.258546
   42          1             0       -6.227388    3.360160    1.031774
   43          1             0       -1.366284    1.247238   -0.853902
   44          1             0       -2.484052   -0.715608   -1.130251
   45          1             0        6.823955   -0.006447    2.189229
   46          1             0        2.663598    3.911572   -1.649324
   47          1             0        2.290669    3.009458   -2.651800
   48          1             0       -3.059092   -4.273349    1.426866
   49          1             0       -4.411099   -3.814242    1.515399
 ---------------------------------------------------------------------
 Rotational constants (GHZ):      0.2749937      0.1016443      0.0864828
 Standard basis: 6-31G(d) (6D, 7F)
 There are   440 symmetry adapted basis functions of A   symmetry.
 Integral buffers will be    262144 words long.
 Raffenetti 1 integral format.
 Two-electron integral symmetry is turned on.
   440 basis functions,   844 primitive gaussians,   440 cartesian basis functions
   102 alpha electrons      102 beta electrons
       nuclear repulsion energy      2644.9946167178 Hartrees.
 NAtoms=   49 NActive=   49 NUniq=   49 SFac= 1.00D+00 NAtFMM=   60 Big=F
 One-electron integrals computed using PRISM.
 NBasis=   440 RedAO= T  NBF=   440
 NBsUse=   440 1.00D-06 NBFU=   440
 Harris functional with IExCor=  205 diagonalized for initial guess.
 ExpMin= 9.98D-02 ExpMax= 1.94D+04 ExpMxC= 2.91D+03 IAcc=2 IRadAn=         4 AccDes= 0.00D+00
 HarFok:  IExCor= 205 AccDes= 0.00D+00 IRadAn=         4 IDoV=1
 ScaDFX=  1.000000  1.000000  1.000000  1.000000
 Initial guess orbital symmetries:
       Occupied  (A) (A) (A) (A) (A) (A) (A) (A) (A) (A) (A) (A)
                 (A) (A) (A) (A) (A) (A) (A) (A) (A) (A) (A) (A)
                 (A) (A) (A) (A) (A) (A) (A) (A) (A) (A) (A) (A)
                 (A) (A) (A) (A) (A) (A) (A) (A) (A) (A) (A) (A)
                 (A) (A) (A) (A) (A) (A) (A) (A) (A) (A) (A) (A)
                 (A) (A) (A) (A) (A) (A) (A) (A) (A) (A) (A) (A)
                 (A) (A) (A) (A) (A) (A) (A) (A) (A) (A) (A) (A)
                 (A) (A) (A) (A) (A) (A) (A) (A) (A) (A) (A) (A)
                 (A) (A) (A) (A) (A) (A)
       Virtual   (A) (A) (A) (A) (A) (A) (A) (A) (A) (A) (A) (A)
                 (A) (A) (A) (A) (A) (A) (A) (A) (A) (A) (A) (A)
                 (A) (A) (A) (A) (A) (A) (A) (A) (A) (A) (A) (A)
                 (A) (A) (A) (A) (A) (A) (A) (A) (A) (A) (A) (A)
                 (A) (A) (A) (A) (A) (A) (A) (A) (A) (A) (A) (A)
                 (A) (A) (A) (A) (A) (A) (A) (A) (A) (A) (A) (A)
                 (A) (A) (A) (A) (A) (A) (A) (A) (A) (A) (A) (A)
                 (A) (A) (A) (A) (A) (A) (A) (A) (A) (A) (A) (A)
                 (A) (A) (A) (A) (A) (A) (A) (A) (A) (A) (A) (A)
                 (A) (A) (A) (A) (A) (A) (A) (A) (A) (A) (A) (A)
                 (A) (A) (A) (A) (A) (A) (A) (A) (A) (A) (A) (A)
                 (A) (A) (A) (A) (A) (A) (A) (A) (A) (A) (A) (A)
                 (A) (A) (A) (A) (A) (A) (A) (A) (A) (A) (A) (A)
                 (A) (A) (A) (A) (A) (A) (A) (A) (A) (A) (A) (A)
                 (A) (A) (A) (A) (A) (A) (A) (A) (A) (A) (A) (A)
                 (A) (A) (A) (A) (A) (A) (A) (A) (A) (A) (A) (A)
                 (A) (A) (A) (A) (A) (A) (A) (A) (A) (A) (A) (A)
                 (A) (A) (A) (A) (A) (A) (A) (A) (A) (A) (A) (A)
                 (A) (A) (A) (A) (A) (A) (A) (A) (A) (A) (A) (A)
                 (A) (A) (A) (A) (A) (A) (A) (A) (A) (A) (A) (A)
                 (A) (A) (A) (A) (A) (A) (A) (A) (A) (A) (A) (A)
                 (A) (A) (A) (A) (A) (A) (A) (A) (A) (A) (A) (A)
                 (A) (A) (A) (A) (A) (A) (A) (A) (A) (A) (A) (A)
                 (A) (A) (A) (A) (A) (A) (A) (A) (A) (A) (A) (A)
                 (A) (A) (A) (A) (A) (A) (A) (A) (A) (A) (A) (A)
                 (A) (A) (A) (A) (A) (A) (A) (A) (A) (A) (A) (A)
                 (A) (A) (A) (A) (A) (A) (A) (A) (A) (A) (A) (A)
                 (A) (A) (A) (A) (A) (A) (A) (A) (A) (A) (A) (A)
                 (A) (A)
 The electronic state of the initial guess is 1-A.
 Requested convergence on RMS density matrix=1.00D-08 within 128 cycles.
 Requested convergence on MAX density matrix=1.00D-06.
 Requested convergence on             energy=1.00D-06.
 No special actions if energy rises.
 Integral accuracy reduced to 1.0D-05 until final iterations.
 Initial convergence to 1.0D-05 achieved.  Increase integral accuracy.
 SCF Done:  E(RHF) =  -1572.30766214     A.U. after   15 cycles
             Convg  =    0.8590D-08             -V/T =  1.9996
             S**2   =   0.0000

 **********************************************************************

            Population analysis using the SCF density.

 **********************************************************************

 Orbital symmetries:
 BldTbl:  Degeneracy threshold= 1.00D-02
       Occupied  (A) (A) (A) (A) (A) (A) (A) (A) (A) (A) (A) (A)
                 (A) (A) (A) (A) (A) (A) (A) (A) (A) (A) (A) (A)
                 (A) (A) (A) (A) (A) (A) (A) (A) (A) (A) (A) (A)
                 (A) (A) (A) (A) (A) (A) (A) (A) (A) (A) (A) (A)
                 (A) (A) (A) (A) (A) (A) (A) (A) (A) (A) (A) (A)
                 (A) (A) (A) (A) (A) (A) (A) (A) (A) (A) (A) (A)
                 (A) (A) (A) (A) (A) (A) (A) (A) (A) (A) (A) (A)
                 (A) (A) (A) (A) (A) (A) (A) (A) (A) (A) (A) (A)
                 (A) (A) (A) (A) (A) (A)
       Virtual   (A) (A) (A) (A) (A) (A) (A) (A) (A) (A) (A) (A)
                 (A) (A) (A) (A) (A) (A) (A) (A) (A) (A) (A) (A)
                 (A) (A) (A) (A) (A) (A) (A) (A) (A) (A) (A) (A)
                 (A) (A) (A) (A) (A) (A) (A) (A) (A) (A) (A) (A)
                 (A) (A) (A) (A) (A) (A) (A) (A) (A) (A) (A) (A)
                 (A) (A) (A) (A) (A) (A) (A) (A) (A) (A) (A) (A)
                 (A) (A) (A) (A) (A) (A) (A) (A) (A) (A) (A) (A)
                 (A) (A) (A) (A) (A) (A) (A) (A) (A) (A) (A) (A)
                 (A) (A) (A) (A) (A) (A) (A) (A) (A) (A) (A) (A)
                 (A) (A) (A) (A) (A) (A) (A) (A) (A) (A) (A) (A)
                 (A) (A) (A) (A) (A) (A) (A) (A) (A) (A) (A) (A)
                 (A) (A) (A) (A) (A) (A) (A) (A) (A) (A) (A) (A)
                 (A) (A) (A) (A) (A) (A) (A) (A) (A) (A) (A) (A)
                 (A) (A) (A) (A) (A) (A) (A) (A) (A) (A) (A) (A)
                 (A) (A) (A) (A) (A) (A) (A) (A) (A) (A) (A) (A)
                 (A) (A) (A) (A) (A) (A) (A) (A) (A) (A) (A) (A)
                 (A) (A) (A) (A) (A) (A) (A) (A) (A) (A) (A) (A)
                 (A) (A) (A) (A) (A) (A) (A) (A) (A) (A) (A) (A)
                 (A) (A) (A) (A) (A) (A) (A) (A) (A) (A) (A) (A)
                 (A) (A) (A) (A) (A) (A) (A) (A) (A) (A) (A) (A)
                 (A) (A) (A) (A) (A) (A) (A) (A) (A) (A) (A) (A)
                 (A) (A) (A) (A) (A) (A) (A) (A) (A) (A) (A) (A)
                 (A) (A) (A) (A) (A) (A) (A) (A) (A) (A) (A) (A)
                 (A) (A) (A) (A) (A) (A) (A) (A) (A) (A) (A) (A)
                 (A) (A) (A) (A) (A) (A) (A) (A) (A) (A) (A) (A)
                 (A) (A) (A) (A) (A) (A) (A) (A) (A) (A) (A) (A)
                 (A) (A) (A) (A) (A) (A) (A) (A) (A) (A) (A) (A)
                 (A) (A) (A) (A) (A) (A) (A) (A) (A) (A) (A) (A)
                 (A) (A)
 The electronic state is 1-A.
 Alpha  occ. eigenvalues --  -79.85988 -20.46724 -20.42092 -20.41986 -20.40892
 Alpha  occ. eigenvalues --  -20.30515 -20.28626 -15.50887 -15.48571 -15.46721
 Alpha  occ. eigenvalues --  -11.25858 -11.25490 -11.24520 -11.19187 -11.18411
 Alpha  occ. eigenvalues --  -11.17791 -11.14791 -11.14304 -11.14090 -11.13637
 Alpha  occ. eigenvalues --  -11.13365 -11.13034 -11.12843 -11.11642 -11.10484
 Alpha  occ. eigenvalues --  -11.10433  -7.39037  -5.28878  -5.28685  -5.28651
 Alpha  occ. eigenvalues --   -1.32337  -1.28635  -1.27612  -1.25971  -1.22680
 Alpha  occ. eigenvalues --   -1.15171  -1.12176  -1.09955  -1.06070  -1.02102
 Alpha  occ. eigenvalues --   -0.97385  -0.95610  -0.94938  -0.92826  -0.91360
 Alpha  occ. eigenvalues --   -0.88931  -0.87894  -0.81693  -0.78540  -0.76475
 Alpha  occ. eigenvalues --   -0.74970  -0.72652  -0.72043  -0.69154  -0.66850
 Alpha  occ. eigenvalues --   -0.63391  -0.62103  -0.61055  -0.60363  -0.59388
 Alpha  occ. eigenvalues --   -0.59225  -0.57620  -0.57022  -0.55461  -0.53231
 Alpha  occ. eigenvalues --   -0.52849  -0.52160  -0.51752  -0.51281  -0.51239
 Alpha  occ. eigenvalues --   -0.50790  -0.49859  -0.49289  -0.48044  -0.47249
 Alpha  occ. eigenvalues --   -0.46880  -0.46514  -0.46168  -0.44428  -0.43483
 Alpha  occ. eigenvalues --   -0.42954  -0.42113  -0.41179  -0.40275  -0.39307
 Alpha  occ. eigenvalues --   -0.39023  -0.37749  -0.36719  -0.32896  -0.32314
 Alpha  occ. eigenvalues --   -0.32023  -0.31292  -0.31052  -0.30146  -0.30002
 Alpha  occ. eigenvalues --   -0.27994  -0.27571  -0.24063  -0.23732  -0.22283
 Alpha  occ. eigenvalues --   -0.19549  -0.19295
 Alpha virt. eigenvalues --    0.22173   0.23551   0.28343   0.28663   0.29609
 Alpha virt. eigenvalues --    0.30741   0.32046   0.34179   0.34409   0.35590
 Alpha virt. eigenvalues --    0.35746   0.36653   0.37501   0.38174   0.38730
 Alpha virt. eigenvalues --    0.39592   0.40136   0.40398   0.40636   0.41463
 Alpha virt. eigenvalues --    0.41854   0.42333   0.42725   0.43863   0.44425
 Alpha virt. eigenvalues --    0.44486   0.45076   0.45481   0.45689   0.46960
 Alpha virt. eigenvalues --    0.47684   0.48778   0.49552   0.50634   0.51643
 Alpha virt. eigenvalues --    0.52743   0.53513   0.54662   0.55471   0.55784
 Alpha virt. eigenvalues --    0.57244   0.58052   0.58453   0.60296   0.60765
 Alpha virt. eigenvalues --    0.61365   0.62216   0.63987   0.66031   0.68029
 Alpha virt. eigenvalues --    0.69808   0.71443   0.74127   0.74641   0.77217
 Alpha virt. eigenvalues --    0.77703   0.79529   0.80291   0.82033   0.82580
 Alpha virt. eigenvalues --    0.82779   0.83266   0.83773   0.84005   0.84467
 Alpha virt. eigenvalues --    0.85176   0.86231   0.86619   0.87438   0.88300
 Alpha virt. eigenvalues --    0.88731   0.89156   0.90269   0.90697   0.92225
 Alpha virt. eigenvalues --    0.92898   0.92981   0.93216   0.93667   0.93971
 Alpha virt. eigenvalues --    0.94830   0.96121   0.97840   0.98823   0.99785
 Alpha virt. eigenvalues --    1.00537   1.01449   1.02727   1.03746   1.04225
 Alpha virt. eigenvalues --    1.05261   1.06620   1.07110   1.07800   1.09250
 Alpha virt. eigenvalues --    1.10008   1.11171   1.11939   1.13379   1.14481
 Alpha virt. eigenvalues --    1.15104   1.15708   1.17133   1.18272   1.18840
 Alpha virt. eigenvalues --    1.19481   1.19894   1.21311   1.21842   1.22271
 Alpha virt. eigenvalues --    1.22671   1.23242   1.23679   1.24255   1.24335
 Alpha virt. eigenvalues --    1.25359   1.25571   1.26221   1.26757   1.27710
 Alpha virt. eigenvalues --    1.27887   1.28713   1.28923   1.29776   1.30308
 Alpha virt. eigenvalues --    1.30480   1.31150   1.31601   1.31706   1.33050
 Alpha virt. eigenvalues --    1.34210   1.35213   1.35616   1.36087   1.37564
 Alpha virt. eigenvalues --    1.38245   1.38846   1.39964   1.40761   1.41863
 Alpha virt. eigenvalues --    1.42941   1.43864   1.44707   1.44972   1.46110
 Alpha virt. eigenvalues --    1.46468   1.46761   1.47666   1.48979   1.50184
 Alpha virt. eigenvalues --    1.50935   1.51415   1.52592   1.53238   1.56333
 Alpha virt. eigenvalues --    1.56772   1.57197   1.58308   1.59617   1.60184
 Alpha virt. eigenvalues --    1.60659   1.61117   1.62109   1.63735   1.64496
 Alpha virt. eigenvalues --    1.65324   1.66494   1.69326   1.70456   1.71747
 Alpha virt. eigenvalues --    1.72946   1.73059   1.77269   1.77821   1.79193
 Alpha virt. eigenvalues --    1.79874   1.81697   1.83071   1.83636   1.83838
 Alpha virt. eigenvalues --    1.84562   1.85325   1.86088   1.86525   1.87330
 Alpha virt. eigenvalues --    1.87498   1.88200   1.91711   1.92226   1.94167
 Alpha virt. eigenvalues --    1.96332   1.97793   2.00615   2.02778   2.04831
 Alpha virt. eigenvalues --    2.06724   2.07429   2.10578   2.11192   2.12982
 Alpha virt. eigenvalues --    2.14536   2.16021   2.17098   2.18046   2.19189
 Alpha virt. eigenvalues --    2.20295   2.20850   2.21043   2.22037   2.22931
 Alpha virt. eigenvalues --    2.23739   2.24685   2.25451   2.26359   2.26730
 Alpha virt. eigenvalues --    2.27840   2.30285   2.31171   2.32967   2.34304
 Alpha virt. eigenvalues --    2.34812   2.35462   2.36946   2.37480   2.37881
 Alpha virt. eigenvalues --    2.38584   2.39741   2.40236   2.40766   2.42653
 Alpha virt. eigenvalues --    2.43504   2.44667   2.45103   2.47073   2.47530
 Alpha virt. eigenvalues --    2.48344   2.48655   2.51974   2.52010   2.52609
 Alpha virt. eigenvalues --    2.53409   2.53863   2.54309   2.55471   2.55927
 Alpha virt. eigenvalues --    2.56889   2.58640   2.60541   2.61075   2.63015
 Alpha virt. eigenvalues --    2.63408   2.64316   2.66356   2.67718   2.68831
 Alpha virt. eigenvalues --    2.70197   2.70832   2.72545   2.73092   2.74844
 Alpha virt. eigenvalues --    2.75550   2.77408   2.78378   2.79074   2.80090
 Alpha virt. eigenvalues --    2.82352   2.84626   2.85947   2.85975   2.86801
 Alpha virt. eigenvalues --    2.88857   2.90182   2.92316   2.94502   2.95199
 Alpha virt. eigenvalues --    2.99130   2.99435   3.02797   3.03115   3.04817
 Alpha virt. eigenvalues --    3.07183   3.08959   3.09343   3.10677   3.13395
 Alpha virt. eigenvalues --    3.15926   3.16893   3.18070   3.19386   3.19959
 Alpha virt. eigenvalues --    3.21250   3.22816   3.25241   3.25775   3.26965
 Alpha virt. eigenvalues --    3.30818   3.33488   3.35899   3.38067   3.39713
 Alpha virt. eigenvalues --    3.40774   3.42156   3.43989   3.45420   3.46552
 Alpha virt. eigenvalues --    3.49281   3.52064   3.63700   3.69340   3.72880
 Alpha virt. eigenvalues --    3.92952   3.94723   4.13514   4.45747   4.49079
 Alpha virt. eigenvalues --    4.56079   4.58247   4.60530   4.61697   4.63804
 Alpha virt. eigenvalues --    4.64414   4.66328   4.70109   4.75635   4.76211
 Alpha virt. eigenvalues --    4.76930   4.78367   4.84859   4.86719   4.88807
 Alpha virt. eigenvalues --    4.92615   4.98057   5.00037   5.03216   5.06739
 Alpha virt. eigenvalues --    5.17574   5.19956   5.24169
          Condensed to atoms (all electrons):
              1          2          3          4          5          6
     1  C    5.205215   0.385285  -0.065873  -0.098269   0.005496  -0.000136
     2  C    0.385285   4.100689   0.565940   0.303588  -0.040081   0.000014
     3  O   -0.065873   0.565940   8.268642  -0.107769   0.013436   0.006961
     4  N   -0.098269   0.303588  -0.107769   7.377796   0.214143  -0.042435
     5  C    0.005496  -0.040081   0.013436   0.214143   5.129072   0.333329
     6  C   -0.000136   0.000014   0.006961  -0.042435   0.333329   4.232142
     7  O   -0.000134   0.004773  -0.004331  -0.001280  -0.079594   0.570060
     8  C   -0.000055   0.003505   0.000519  -0.041013   0.306314  -0.034431
     9  O    0.000000  -0.000023   0.000000   0.003777  -0.040290   0.001886
    10  H   -0.002479  -0.009176   0.001342   0.263065  -0.018861   0.001200
    11  N   -0.000014  -0.000002  -0.001956   0.002223  -0.097882   0.241678
    12  C    0.000000  -0.000007  -0.000060  -0.000088   0.004663  -0.029918
    13  H    0.000000  -0.000060   0.000000   0.000038   0.000088  -0.020573
    14  C    0.000000   0.000000   0.000000   0.000000   0.000000   0.000000
    15  C    0.000000   0.000000   0.000000   0.000000   0.000000   0.000000
    16  O    0.000000   0.000000   0.000000   0.000000   0.000000   0.000000
    17  N    0.000000   0.000000   0.000000   0.000001   0.000037   0.000000
    18  C    0.000000  -0.000004   0.000000  -0.000051  -0.000096  -0.000001
    19  P   -0.000002  -0.000100  -0.000008  -0.002290  -0.003525   0.000249
    20  O   -0.000149   0.000228  -0.000001  -0.014966  -0.003941   0.000014
    21  O    0.000000   0.000000   0.000000  -0.000036   0.000241  -0.000001
    22  C   -0.000001   0.000010   0.000000  -0.000026   0.000012   0.000000
    23  C    0.000000   0.000000   0.000000   0.000000   0.000003   0.000000
    24  C    0.000000   0.000000   0.000000   0.000000   0.000000   0.000000
    25  C    0.000000   0.000000   0.000000   0.000000   0.000000   0.000000
    26  C    0.000000   0.000000   0.000000   0.000000   0.000000   0.000000
    27  C    0.000000   0.000000   0.000000   0.000000   0.000000   0.000000
    28  C    0.000000   0.000000   0.000000   0.000000   0.000000   0.000000
    29  H    0.000000   0.000000   0.000000  -0.000001   0.000017   0.000000
    30  H    0.388935  -0.036019   0.001593   0.001574  -0.000121   0.000022
    31  H   -0.000159  -0.002527   0.002614  -0.045812   0.403030  -0.060258
    32  H   -0.000018  -0.000232  -0.000007  -0.001670  -0.043238  -0.000716
    33  H    0.000001  -0.000033   0.000001   0.004217  -0.066137   0.001625
    34  H    0.000000   0.000000  -0.000001   0.000000   0.000001   0.004032
    35  H    0.000000  -0.000004   0.000002  -0.000006   0.000274  -0.002365
    36  H    0.000000   0.000000   0.000000   0.000000   0.000000   0.000000
    37  H    0.000000  -0.000003   0.000000   0.000103   0.000041   0.000004
    38  H    0.000000   0.000000   0.000000   0.000000   0.000000   0.000000
    39  H    0.000000   0.000000   0.000000   0.000000   0.000000   0.000000
    40  H    0.000000   0.000000   0.000000   0.000000   0.000000   0.000000
    41  H    0.000000   0.000000   0.000000   0.000000   0.000000   0.000000
    42  H    0.000000   0.000000   0.000000   0.000000   0.000000   0.000000
    43  H    0.000005  -0.000001   0.000000   0.000018   0.000071   0.000000
    44  H    0.000000   0.000000   0.000000   0.000000   0.000002   0.000000
    45  H    0.000000   0.000003   0.000061   0.000004  -0.000083  -0.001475
    46  H    0.385641  -0.023679   0.000616   0.001296  -0.000165  -0.000008
    47  H    0.383969  -0.010371   0.002199   0.002293   0.000011   0.000001
    48  H    0.000000   0.000000   0.000000   0.000000   0.000000   0.000000
    49  H    0.000000   0.000000   0.000000   0.000000   0.000000   0.000000
              7          8          9         10         11         12
     1  C   -0.000134  -0.000055   0.000000  -0.002479  -0.000014   0.000000
     2  C    0.004773   0.003505  -0.000023  -0.009176  -0.000002  -0.000007
     3  O   -0.004331   0.000519   0.000000   0.001342  -0.001956  -0.000060
     4  N   -0.001280  -0.041013   0.003777   0.263065   0.002223  -0.000088
     5  C   -0.079594   0.306314  -0.040290  -0.018861  -0.097882   0.004663
     6  C    0.570060  -0.034431   0.001886   0.001200   0.241678  -0.029918
     7  O    8.238629   0.001791   0.000000  -0.000020  -0.091870   0.002078
     8  C    0.001791   4.861750   0.184354  -0.000302  -0.005151  -0.000178
     9  O    0.000000   0.184354   8.599778  -0.000253  -0.000003   0.000001
    10  H   -0.000020  -0.000302  -0.000253   0.244093  -0.000041   0.000001
    11  N   -0.091870  -0.005151  -0.000003  -0.000041   7.288526   0.220625
    12  C    0.002078  -0.000178   0.000001   0.000001   0.220625   4.893117
    13  H    0.002502   0.000369  -0.000035   0.000001   0.330590  -0.024145
    14  C    0.000000   0.000000  -0.000001   0.000000   0.000000   0.000000
    15  C    0.000000   0.000002   0.000000   0.000000   0.000000   0.000000
    16  O    0.000000   0.000000   0.000000   0.000000   0.000000   0.000000
    17  N    0.000000  -0.000521   0.008307  -0.000013   0.000000   0.000000
    18  C    0.000000   0.003447  -0.065415  -0.000213   0.000000   0.000000
    19  P   -0.000109  -0.031854   0.181788   0.005830  -0.000031   0.000000
    20  O    0.000000   0.005109  -0.023496   0.049094   0.000000   0.000000
    21  O    0.000000  -0.003233  -0.025068   0.000079   0.000000   0.000000
    22  C    0.000000   0.000166  -0.002076   0.000151   0.000000   0.000000
    23  C    0.000000  -0.000002   0.000150  -0.000005   0.000000   0.000000
    24  C    0.000000   0.000000  -0.000001   0.000000   0.000000   0.000000
    25  C    0.000000   0.000000  -0.000005   0.000000   0.000000   0.000000
    26  C    0.000000   0.000000   0.000000   0.000000   0.000000   0.000000
    27  C    0.000000   0.000000   0.000000   0.000000   0.000000   0.000000
    28  C    0.000000   0.000000   0.000000   0.000000   0.000000   0.000000
    29  H    0.000000  -0.000134   0.007099  -0.000001   0.000000   0.000000
    30  H    0.000041   0.000001   0.000000   0.000082   0.000000   0.000000
    31  H    0.002280  -0.030989   0.000242   0.001199   0.008190  -0.000079
    32  H    0.002722   0.396700  -0.031472   0.000130   0.000653   0.000003
    33  H   -0.000028   0.402151  -0.032165   0.000184   0.002675  -0.000079
    34  H    0.000346   0.000016   0.000000   0.000000  -0.045477   0.397727
    35  H    0.007318   0.000027   0.000000   0.000000  -0.040322   0.403576
    36  H    0.000000   0.000000  -0.000007   0.000000   0.000000   0.000000
    37  H    0.000000  -0.000464   0.011187  -0.000087   0.000000   0.000000
    38  H    0.000000   0.000000   0.000001   0.000000   0.000000   0.000000
    39  H    0.000000   0.000000  -0.000002   0.000000   0.000000   0.000000
    40  H    0.000000   0.000000   0.000000   0.000000   0.000000   0.000000
    41  H    0.000000   0.000000   0.000000   0.000000   0.000000   0.000000
    42  H    0.000000   0.000000   0.000000   0.000000   0.000000   0.000000
    43  H    0.000000  -0.000089  -0.000389   0.000188   0.000000   0.000000
    44  H    0.000000  -0.000027   0.000526  -0.000008   0.000000   0.000000
    45  H    0.000404  -0.000006   0.000000   0.000000  -0.027710   0.402093
    46  H   -0.000001   0.000002   0.000000   0.000074   0.000000   0.000000
    47  H    0.000001  -0.000010   0.000000   0.000888   0.000000   0.000000
    48  H    0.000000   0.000000  -0.000003   0.000000   0.000000   0.000000
    49  H    0.000000   0.000000   0.000000   0.000000   0.000000   0.000000
             13         14         15         16         17         18
     1  C    0.000000   0.000000   0.000000   0.000000   0.000000   0.000000
     2  C   -0.000060   0.000000   0.000000   0.000000   0.000000  -0.000004
     3  O    0.000000   0.000000   0.000000   0.000000   0.000000   0.000000
     4  N    0.000038   0.000000   0.000000   0.000000   0.000001  -0.000051
     5  C    0.000088   0.000000   0.000000   0.000000   0.000037  -0.000096
     6  C   -0.020573   0.000000   0.000000   0.000000   0.000000  -0.000001
     7  O    0.002502   0.000000   0.000000   0.000000   0.000000   0.000000
     8  C    0.000369   0.000000   0.000002   0.000000  -0.000521   0.003447
     9  O   -0.000035  -0.000001   0.000000   0.000000   0.008307  -0.065415
    10  H    0.000001   0.000000   0.000000   0.000000  -0.000013  -0.000213
    11  N    0.330590   0.000000   0.000000   0.000000   0.000000   0.000000
    12  C   -0.024145   0.000000   0.000000   0.000000   0.000000   0.000000
    13  H    0.324477   0.000000   0.000000   0.000000   0.000000   0.000000
    14  C    0.000000   5.228210   0.370490  -0.069058  -0.105477   0.009988
    15  C    0.000000   0.370490   4.165518   0.577083   0.308350  -0.058547
    16  O    0.000000  -0.069058   0.577083   8.199633  -0.094581  -0.003516
    17  N    0.000000  -0.105477   0.308350  -0.094581   7.301163  -0.098129
    18  C    0.000000   0.009988  -0.058547  -0.003516  -0.098129   5.958069
    19  P   -0.000006  -0.000257   0.005301  -0.001210  -0.022380   0.184100
    20  O    0.000000   0.000000  -0.000035   0.000000   0.002215  -0.035530
    21  O    0.000000  -0.000039   0.004998  -0.000875  -0.001327  -0.051384
    22  C    0.000000  -0.000103  -0.001009   0.000447  -0.110679   0.331699
    23  C    0.000000  -0.000050   0.002276  -0.000028   0.010579  -0.050841
    24  C    0.000000  -0.000054   0.000807  -0.001939   0.002061  -0.004349
    25  C    0.000000   0.000000   0.000016   0.000002  -0.000173   0.001517
    26  C    0.000000  -0.000002  -0.000015  -0.000017  -0.000053   0.000527
    27  C    0.000000   0.000000  -0.000003   0.000000   0.000013  -0.000077
    28  C    0.000000   0.000000   0.000000   0.000000  -0.000001  -0.000015
    29  H    0.000000  -0.003467  -0.023827   0.002224   0.351874  -0.080644
    30  H    0.000000   0.000000   0.000000   0.000000   0.000000   0.000000
    31  H    0.003219   0.000000   0.000000   0.000000  -0.000001  -0.000037
    32  H   -0.000017   0.000000  -0.000001   0.000000  -0.000036   0.000062
    33  H    0.000387   0.000000   0.000000   0.000000   0.000011  -0.000057
    34  H   -0.003738   0.000000   0.000000   0.000000   0.000000   0.000000
    35  H    0.002535   0.000000   0.000000   0.000000   0.000000   0.000000
    36  H    0.000000   0.375958  -0.052292   0.002506   0.009659   0.000323
    37  H    0.000000   0.000009  -0.000785  -0.000033   0.002824  -0.068205
    38  H    0.000000   0.000072   0.000596   0.004288  -0.001924   0.001420
    39  H    0.000000   0.000000   0.000002   0.000000   0.000032  -0.000143
    40  H    0.000000   0.000000  -0.000001  -0.000004   0.000001   0.000000
    41  H    0.000000   0.000000   0.000000   0.000000   0.000000   0.000002
    42  H    0.000000   0.000000   0.000000   0.000000   0.000000   0.000000
    43  H    0.000000   0.000002   0.000027   0.000007   0.004978  -0.030577
    44  H    0.000000   0.001252  -0.013833   0.010661  -0.045460   0.423695
    45  H    0.000560   0.000000   0.000000   0.000000   0.000000   0.000000
    46  H    0.000000   0.000000   0.000000   0.000000   0.000000   0.000000
    47  H    0.000000   0.000000   0.000000   0.000000   0.000000   0.000000
    48  H    0.000000   0.387598  -0.017824   0.000040  -0.000084  -0.000161
    49  H    0.000000   0.394482  -0.010529   0.000421   0.001540  -0.000042
             19         20         21         22         23         24
     1  C   -0.000002  -0.000149   0.000000  -0.000001   0.000000   0.000000
     2  C   -0.000100   0.000228   0.000000   0.000010   0.000000   0.000000
     3  O   -0.000008  -0.000001   0.000000   0.000000   0.000000   0.000000
     4  N   -0.002290  -0.014966  -0.000036  -0.000026   0.000000   0.000000
     5  C   -0.003525  -0.003941   0.000241   0.000012   0.000003   0.000000
     6  C    0.000249   0.000014  -0.000001   0.000000   0.000000   0.000000
     7  O   -0.000109   0.000000   0.000000   0.000000   0.000000   0.000000
     8  C   -0.031854   0.005109  -0.003233   0.000166  -0.000002   0.000000
     9  O    0.181788  -0.023496  -0.025068  -0.002076   0.000150  -0.000001
    10  H    0.005830   0.049094   0.000079   0.000151  -0.000005   0.000000
    11  N   -0.000031   0.000000   0.000000   0.000000   0.000000   0.000000
    12  C    0.000000   0.000000   0.000000   0.000000   0.000000   0.000000
    13  H   -0.000006   0.000000   0.000000   0.000000   0.000000   0.000000
    14  C   -0.000257   0.000000  -0.000039  -0.000103  -0.000050  -0.000054
    15  C    0.005301  -0.000035   0.004998  -0.001009   0.002276   0.000807
    16  O   -0.001210   0.000000  -0.000875   0.000447  -0.000028  -0.001939
    17  N   -0.022380   0.002215  -0.001327  -0.110679   0.010579   0.002061
    18  C    0.184100  -0.035530  -0.051384   0.331699  -0.050841  -0.004349
    19  P   12.219185   0.490852   0.624567  -0.012516  -0.001274  -0.000031
    20  O    0.490852   8.490373  -0.093884  -0.003741  -0.000025   0.000008
[...]
 1280 Fit      -0.063835
 1281 Fit      -0.073150
 1282 Fit      -0.064228
 1283 Fit      -0.071680
 1284 Fit      -0.074430
 1285 Fit      -0.073687
 1286 Fit      -0.068902
 1287 Fit      -0.067671
 1288 Fit      -0.069069
 1289 Fit      -0.068311
 1290 Fit      -0.063203
 1291 Fit      -0.064781
 1292 Fit      -0.064130
 1293 Fit      -0.063202
 1294 Fit      -0.062620
 1295 Fit      -0.062139
 1296 Fit      -0.061259
 1297 Fit      -0.087813
 1298 Fit      -0.083567
 1299 Fit      -0.092106
 1300 Fit      -0.088440
 1301 Fit      -0.094821
 1302 Fit      -0.089483
 1303 Fit      -0.102650
 1304 Fit      -0.100177
 1305 Fit      -0.101621
 1306 Fit      -0.077075
 1307 Fit      -0.082324
 1308 Fit      -0.069159
 1309 Fit      -0.073926
 1310 Fit      -0.082033
 1311 Fit      -0.064305
 1312 Fit      -0.068659
 1313 Fit      -0.075630
 1314 Fit      -0.081182
 1315 Fit      -0.068064
 1316 Fit      -0.074106
 1317 Fit      -0.082137
 1318 Fit      -0.067993
 1319 Fit      -0.075473
 1320 Fit      -0.060978
 1321 Fit      -0.062347
 1322 Fit      -0.078503
 1323 Fit      -0.066166
 1324 Fit      -0.058714
 1325 Fit      -0.058219
 1326 Fit      -0.093970
 1327 Fit      -0.074740
 1328 Fit      -0.063695
 1329 Fit      -0.061656
 1330 Fit      -0.081073
 1331 Fit      -0.068023
 1332 Fit      -0.063809
 1333 Fit      -0.064561
 1334 Fit      -0.069211
 1335 Fit      -0.054782
 1336 Fit      -0.054821
 1337 Fit      -0.057159
 1338 Fit      -0.061601
 1339 Fit      -0.053976
 1340 Fit      -0.051809
 1341 Fit      -0.052679
 1342 Fit      -0.056535
 1343 Fit      -0.062431
 1344 Fit      -0.061773
 1345 Fit      -0.054703
 1346 Fit      -0.056207
 1347 Fit      -0.064347
 1348 Fit      -0.062479
 1349 Fit      -0.056825
 1350 Fit      -0.055942
 1351 Fit      -0.059357
 1352 Fit      -0.052884
 1353 Fit      -0.050662
 1354 Fit      -0.051658
 1355 Fit      -0.055681
 1356 Fit      -0.058312
 1357 Fit      -0.053441
 1358 Fit      -0.050376
 1359 Fit      -0.051237
 1360 Fit      -0.054343
 1361 Fit      -0.061449
 1362 Fit      -0.057964
 1363 Fit      -0.055157
 1364 Fit      -0.112218
 1365 Fit      -0.099831
 1366 Fit      -0.094281
 1367 Fit      -0.099333
 1368 Fit      -0.091461
 1369 Fit      -0.088006
 1370 Fit      -0.086669
 1371 Fit      -0.113014
 1372 Fit      -0.105178
 1373 Fit      -0.101459
 1374 Fit      -0.118762
 1375 Fit      -0.073588
 1376 Fit      -0.087149
 1377 Fit      -0.076179
 1378 Fit      -0.065961
 1379 Fit      -0.064130
 1380 Fit      -0.073212
 1381 Fit      -0.087579
 1382 Fit      -0.060327
 1383 Fit      -0.058279
 1384 Fit      -0.061030
 1385 Fit      -0.070048
 1386 Fit      -0.087878
 1387 Fit      -0.056121
 1388 Fit      -0.059132
 1389 Fit      -0.067273
 1390 Fit      -0.084059
 1391 Fit      -0.072318
 1392 Fit      -0.067023
 1393 Fit      -0.066823
 1394 Fit      -0.083378
 1395 Fit      -0.074237
 1396 Fit      -0.068416
 1397 Fit      -0.067668
 1398 Fit      -0.071967
 1399 Fit      -0.082526
 1400 Fit      -0.075614
 1401 Fit      -0.073386
 1402 Fit      -0.078988
 1403 Fit      -0.086881
 1404 Fit      -0.087154
 1405 Fit      -0.087408
 1406 Fit      -0.094303
 1407 Fit      -0.080289
 1408 Fit      -0.100497
 1409 Fit      -0.112712
 1410 Fit      -0.101763
 1411 Fit      -0.084971
 1412 Fit      -0.115255
 1413 Fit      -0.106023
 1414 Fit      -0.127433
 1415 Fit      -0.100326
 1416 Fit      -0.087488
 1417 Fit      -0.085561
 1418 Fit      -0.105330
 1419 Fit      -0.098889
 1420 Fit      -0.086150
 1421 Fit      -0.077179
 1422 Fit      -0.073650
 1423 Fit      -0.079512
 1424 Fit      -0.073293
 1425 Fit      -0.068999
 1426 Fit      -0.095574
 1427 Fit      -0.082113
 1428 Fit      -0.084684
 1429 Fit      -0.074944
 1430 Fit      -0.083776
 1431 Fit      -0.070884
 1432 Fit      -0.068690
 1433 Fit      -0.069794
 1434 Fit      -0.066235
 1435 Fit      -0.072398
 1436 Fit      -0.063619
 1437 Fit      -0.063084
 1438 Fit      -0.064132
 1439 Fit      -0.062798
 1440 Fit      -0.076142
 1441 Fit      -0.071926
 1442 Fit      -0.082625
 1443 Fit      -0.075256
 1444 Fit      -0.068767
 1445 Fit      -0.085539
 1446 Fit      -0.078804
 1447 Fit      -0.070900
 1448 Fit      -0.066640
 1449 Fit      -0.065161
 1450 Fit      -0.068262
 1451 Fit      -0.081593
 1452 Fit      -0.081578
 1453 Fit      -0.087445
 1454 Fit      -0.086324
 1455 Fit      -0.083293
 1456 Fit      -0.079770
 1457 Fit      -0.089534
 1458 Fit      -0.090853
 1459 Fit      -0.090106
 1460 Fit      -0.087355
 1461 Fit      -0.082407
 1462 Fit      -0.091780
 1463 Fit      -0.092612
 1464 Fit      -0.092914
 1465 Fit      -0.091877
 1466 Fit      -0.088919
 1467 Fit      -0.083108
 1468 Fit      -0.094058
 1469 Fit      -0.094135
 1470 Fit      -0.093797
 1471 Fit      -0.092349
 1472 Fit      -0.089112
 1473 Fit      -0.083138
 1474 Fit      -0.093180
 1475 Fit      -0.093146
 1476 Fit      -0.090079
 1477 Fit      -0.091234
 1478 Fit      -0.111577
 1479 Fit      -0.094582
 1480 Fit      -0.106532
 1481 Fit      -0.092906
 1482 Fit      -0.094766
 1483 Fit      -0.105517
 1484 Fit      -0.076878
 1485 Fit      -0.085747
 1486 Fit      -0.082444
 1487 Fit      -0.079470
 1488 Fit      -0.107570
 1489 Fit      -0.100362
 1490 Fit      -0.107942
 1491 Fit      -0.101080
 1492 Fit      -0.107105
 1493 Fit      -0.113613
 1494 Fit      -0.100335
 1495 Fit      -0.105366
 1496 Fit      -0.110996
 1497 Fit      -0.117484
 1498 Fit      -0.097470
 1499 Fit      -0.101711
 1500 Fit      -0.105824
 1501 Fit      -0.110429
 1502 Fit      -0.114799
 1503 Fit      -0.095921
 1504 Fit      -0.100180
 1505 Fit      -0.103715
 1506 Fit      -0.106270
 1507 Fit      -0.091767
 1508 Fit      -0.096624
 1509 Fit      -0.099114
 1510 Fit      -0.098330
 1511 Fit      -0.092305
 1512 Fit      -0.092445
 1513 Fit      -0.087540
 1514 Fit      -0.111273
 1515 Fit      -0.089545
 1516 Fit      -0.086060
 1517 Fit      -0.080902
 1518 Fit      -0.073534
 1519 Fit      -0.083589
 1520 Fit      -0.081076
 1521 Fit      -0.071621
 1522 Fit      -0.078194
 1523 Fit      -0.076716
 1524 Fit      -0.071097
 1525 Fit      -0.079093
 1526 Fit      -0.075103
 1527 Fit      -0.068599
 1528 Fit      -0.062327
 1529 Fit      -0.056379
 1530 Fit      -0.053333
 1531 Fit      -0.055963
 1532 Fit      -0.061958
 1533 Fit      -0.073639
 1534 Fit      -0.052012
 1535 Fit      -0.054693
 1536 Fit      -0.060088
 1537 Fit      -0.052415
 1538 Fit      -0.054721
 1539 Fit      -0.054622
 1540 Fit      -0.067619
 1541 Fit      -0.060403
 1542 Fit      -0.080537
 1543 Fit      -0.086796
 1544 Fit      -0.068478
 1545 Fit      -0.072521
 1546 Fit      -0.078076
 1547 Fit      -0.075139
 1548 Fit      -0.065463
 1549 Fit      -0.063962
 1550 Fit      -0.064205
 1551 Fit      -0.067925
 1552 Fit      -0.065631
 1553 Fit      -0.063388
 1554 Fit      -0.062015
 1555 Fit      -0.061529
 1556 Fit      -0.117686
 1557 Fit      -0.090834
 1558 Fit      -0.090226
 1559 Fit      -0.118627
 1560 Fit      -0.111773
 1561 Fit      -0.110604
 1562 Fit      -0.127038
 1563 Fit      -0.116564
 1564 Fit      -0.106971
 1565 Fit      -0.104791
 1566 Fit      -0.133443
 1567 Fit      -0.119232
 1568 Fit      -0.112559
 1569 Fit      -0.109150
 1570 Fit      -0.103511
 1571 Fit      -0.101122
 1572 Fit      -0.130438
 1573 Fit      -0.114982
 1574 Fit      -0.109133
 1575 Fit      -0.106544
 1576 Fit      -0.104977
 1577 Fit      -0.100591
 1578 Fit      -0.099638
 1579 Fit      -0.100961
 1580 Fit      -0.100785
 1581 Fit      -0.100844
 1582 Fit      -0.096761
 1583 Fit      -0.099222
 1584 Fit      -0.091367
 1585 Fit      -0.096542
 1586 Fit      -0.091021
 1587 Fit      -0.081090
 1588 Fit      -0.134601
 1589 Fit      -0.125614
 1590 Fit      -0.136187
 1591 Fit      -0.131235
 1592 Fit      -0.117444
 1593 Fit      -0.117541
 1594 Fit      -0.138116
 1595 Fit      -0.141090
 1596 Fit      -0.136912
 1597 Fit      -0.126357
 1598 Fit      -0.110188
 1599 Fit      -0.131683
 1600 Fit      -0.137708
 1601 Fit      -0.137249
 1602 Fit      -0.125192
 1603 Fit      -0.130595
 1604 Fit      -0.114245
 1605 Fit      -0.127130
 1606 Fit      -0.127821
 1607 Fit      -0.121391
 1608 Fit      -0.118741
 1609 Fit      -0.124629
 1610 Fit      -0.133625
 1611 Fit      -0.120442
 1612 Fit      -0.115757
 1613 Fit      -0.121014
 1614 Fit      -0.130581
 1615 Fit      -0.121781
 1616 Fit      -0.141648
 1617 Fit      -0.139972
 1618 Fit      -0.140901
 1619 Fit      -0.138025
 1620 Fit      -0.136840
 1621 Fit      -0.137606
 1622 Fit      -0.139581
 1623 Fit      -0.136808
 1624 Fit      -0.135170
 1625 Fit      -0.133959
 1626 Fit      -0.134408
 1627 Fit      -0.137628
 1628 Fit      -0.144379
 1629 Fit      -0.133874
 1630 Fit      -0.133283
 1631 Fit      -0.131682
 1632 Fit      -0.130674
 1633 Fit      -0.131218
 1634 Fit      -0.135240
 1635 Fit      -0.130780
 1636 Fit      -0.129896
 1637 Fit      -0.127582
 1638 Fit      -0.124639
 1639 Fit      -0.125318
 1640 Fit      -0.121431
 1641 Fit      -0.100176
 1642 Fit      -0.091796
 1643 Fit      -0.091324
 1644 Fit      -0.086326
 1645 Fit      -0.088353
 1646 Fit      -0.092608
 1647 Fit      -0.096775
 1648 Fit      -0.092825
 1649 Fit      -0.085453
 1650 Fit      -0.085062
 1651 Fit      -0.079342
 1652 Fit      -0.078532
 1653 Fit      -0.080740
 1654 Fit      -0.072001
 1655 Fit      -0.086236
 1656 Fit      -0.091779
 1657 Fit      -0.094644
 1658 Fit      -0.076073
 1659 Fit      -0.082626
 1660 Fit      -0.077033
 1661 Fit      -0.080461
 1662 Fit      -0.071072
 1663 Fit      -0.077634
 1664 Fit      -0.086542
 1665 Fit      -0.091897
 1666 Fit      -0.063303
 1667 Fit      -0.092467
 1668 Fit      -0.079066
 1669 Fit      -0.095978
 1670 Fit      -0.086042
 1671 Fit      -0.076631
 1672 Fit      -0.079773
 1673 Fit      -0.069557
 1674 Fit      -0.070881
 1675 Fit      -0.074652
 1676 Fit      -0.061157
 1677 Fit      -0.068539
 1678 Fit      -0.059021
 1679 Fit      -0.068064
 1680 Fit      -0.089285
 1681 Fit      -0.086110
 1682 Fit      -0.068018
 1683 Fit      -0.070853
 1684 Fit      -0.077873
 1685 Fit      -0.076375
 1686 Fit      -0.069108
 1687 Fit      -0.069784
 1688 Fit      -0.073230
 1689 Fit      -0.080369
 1690 Fit      -0.062854
 1691 Fit      -0.067165
 1692 Fit      -0.073883
 1693 Fit      -0.063717
 1694 Fit      -0.065448
 1695 Fit      -0.090854
 1696 Fit      -0.081137
 1697 Fit      -0.070366
 1698 Fit      -0.066946
 1699 Fit      -0.063497
 1700 Fit      -0.076194
 1701 Fit      -0.081045
 1702 Fit      -0.077058
 1703 Fit      -0.075106
 1704 Fit      -0.069794
 1705 Fit      -0.067242
 1706 Fit      -0.063338
 1707 Fit      -0.065850
 1708 Fit      -0.074589
 1709 Fit      -0.062518
 1710 Fit      -0.061215
 1711 Fit      -0.062719
 1712 Fit      -0.067864
 1713 Fit      -0.077135
 1714 Fit      -0.064815
 1715 Fit      -0.063886
 1716 Fit      -0.064428
 1717 Fit      -0.067229
 1718 Fit      -0.073455
 1719 Fit      -0.073056
 1720 Fit      -0.073224
 1721 Fit      -0.074592
 1722 Fit      -0.086951
 1723 Fit      -0.083902
 1724 Fit      -0.087206
 1725 Fit      -0.077867
 1726 Fit      -0.078183
 1727 Fit      -0.078991
 1728 Fit      -0.078100
 1729 Fit      -0.076228
 1730 Fit      -0.076913
 1731 Fit      -0.075048
 1732 Fit      -0.116578
 1733 Fit      -0.124405
 1734 Fit      -0.114360
 1735 Fit      -0.114486
 1736 Fit      -0.127226
 1737 Fit      -0.116549
 1738 Fit      -0.118498
 1739 Fit      -0.114396
 1740 Fit      -0.096534
 1741 Fit      -0.096671
 1742 Fit      -0.100587
 1743 Fit      -0.092352
 1744 Fit      -0.086054
 1745 Fit      -0.085171
 1746 Fit      -0.085453
 1747 Fit      -0.079646
 1748 Fit      -0.078883
 1749 Fit      -0.077555
 1750 Fit      -0.082435
 1751 Fit      -0.081082
 1752 Fit      -0.079128
 1753 Fit      -0.077455
 1754 Fit      -0.061769
 1755 Fit      -0.056370
 1756 Fit      -0.066531
 1757 Fit      -0.057235
 1758 Fit      -0.052595
 1759 Fit      -0.051329
 1760 Fit      -0.063180
 1761 Fit      -0.055178
 1762 Fit      -0.050976
 1763 Fit      -0.049873
 1764 Fit      -0.051217
 1765 Fit      -0.063781
 1766 Fit      -0.055893
 1767 Fit      -0.051703
 1768 Fit      -0.051221
 1769 Fit      -0.062618
 1770 Fit      -0.055823
 1771 Fit      -0.073147
 1772 Fit      -0.059187
 1773 Fit      -0.067070
 1774 Fit      -0.080735
 1775 Fit      -0.054882
 1776 Fit      -0.056714
 1777 Fit      -0.062471
 1778 Fit      -0.072498
 1779 Fit      -0.084017
 1780 Fit      -0.071918
 1781 Fit      -0.059668
 1782 Fit      -0.057857
 1783 Fit      -0.062736
 1784 Fit      -0.070387
 1785 Fit      -0.063184
 1786 Fit      -0.074092
 1787 Fit      -0.068463
 1788 Fit      -0.071081
 1789 Fit      -0.070948
 1790 Fit      -0.068312
 1791 Fit      -0.067199
 1792 Fit      -0.067149
 1793 Fit      -0.065834
 1794 Fit      -0.061804
 1795 Fit      -0.063572
 1796 Fit      -0.063509
 1797 Fit      -0.062589
 1798 Fit      -0.061515
 1799 Fit      -0.060801
 1800 Fit      -0.060758
 1801 Fit      -0.086247
 1802 Fit      -0.088971
 1803 Fit      -0.086570
 1804 Fit      -0.093712
 1805 Fit      -0.088454
 1806 Fit      -0.099386
 1807 Fit      -0.096384
 1808 Fit      -0.095106
 1809 Fit      -0.078201
 1810 Fit      -0.070681
 1811 Fit      -0.073535
 1812 Fit      -0.081008
 1813 Fit      -0.065574
 1814 Fit      -0.070098
 1815 Fit      -0.078320
 1816 Fit      -0.085813
 1817 Fit      -0.063572
 1818 Fit      -0.068072
 1819 Fit      -0.074718
 1820 Fit      -0.080001
 1821 Fit      -0.067896
 1822 Fit      -0.073372
 1823 Fit      -0.068618
 1824 Fit      -0.075633
 1825 Fit      -0.061911
 1826 Fit      -0.062924
 1827 Fit      -0.078374
 1828 Fit      -0.066916
 1829 Fit      -0.058512
 1830 Fit      -0.058165
 1831 Fit      -0.089904
 1832 Fit      -0.072589
 1833 Fit      -0.062919
 1834 Fit      -0.058515
 1835 Fit      -0.057041
 1836 Fit      -0.089908
 1837 Fit      -0.072931
 1838 Fit      -0.063276
 1839 Fit      -0.062451
 1840 Fit      -0.068518
 1841 Fit      -0.057045
 1842 Fit      -0.056823
 1843 Fit      -0.058585
 1844 Fit      -0.062528
 1845 Fit      -0.052422
 1846 Fit      -0.052264
 1847 Fit      -0.053959
 1848 Fit      -0.057624
 1849 Fit      -0.062415
 1850 Fit      -0.053686
 1851 Fit      -0.051607
 1852 Fit      -0.052515
 1853 Fit      -0.056197
 1854 Fit      -0.062031
 1855 Fit      -0.060671
 1856 Fit      -0.054880
 1857 Fit      -0.056363
 1858 Fit      -0.063400
 1859 Fit      -0.061515
 1860 Fit      -0.058303
 1861 Fit      -0.057585
 1862 Fit      -0.060863
 1863 Fit      -0.053491
 1864 Fit      -0.051747
 1865 Fit      -0.052585
 1866 Fit      -0.056174
 1867 Fit      -0.052176
 1868 Fit      -0.049716
 1869 Fit      -0.049864
 1870 Fit      -0.052259
 1871 Fit      -0.057616
 1872 Fit      -0.053692
 1873 Fit      -0.050728
 1874 Fit      -0.051207
 1875 Fit      -0.061017
 1876 Fit      -0.057907
 1877 Fit      -0.055421
 1878 Fit      -0.110400
 1879 Fit      -0.099262
 1880 Fit      -0.093856
 1881 Fit      -0.099044
 1882 Fit      -0.089340
 1883 Fit      -0.087345
 1884 Fit      -0.084858
 1885 Fit      -0.103719
 1886 Fit      -0.101480
 1887 Fit      -0.115431
 1888 Fit      -0.073272
 1889 Fit      -0.085318
 1890 Fit      -0.075239
 1891 Fit      -0.066078
 1892 Fit      -0.064604
 1893 Fit      -0.072730
 1894 Fit      -0.085094
 1895 Fit      -0.060336
 1896 Fit      -0.058530
 1897 Fit      -0.061188
 1898 Fit      -0.069359
 1899 Fit      -0.084510
 1900 Fit      -0.055659
 1901 Fit      -0.056587
 1902 Fit      -0.061045
 1903 Fit      -0.070489
 1904 Fit      -0.088206
 1905 Fit      -0.071966
 1906 Fit      -0.066658
 1907 Fit      -0.065633
 1908 Fit      -0.083458
 1909 Fit      -0.074354
 1910 Fit      -0.067893
 1911 Fit      -0.065456
 1912 Fit      -0.066818
 1913 Fit      -0.084303
 1914 Fit      -0.075760
 1915 Fit      -0.069911
 1916 Fit      -0.068672
 1917 Fit      -0.072292
 1918 Fit      -0.081231
 1919 Fit      -0.076836
 1920 Fit      -0.075612
 1921 Fit      -0.082081
 1922 Fit      -0.085894
 1923 Fit      -0.091921
 1924 Fit      -0.097050
 1925 Fit      -0.106526
 1926 Fit      -0.098761
 1927 Fit      -0.083427
 1928 Fit      -0.087179
 1929 Fit      -0.121173
 1930 Fit      -0.108239
 1931 Fit      -0.092748
 1932 Fit      -0.089850
 1933 Fit      -0.105180
 1934 Fit      -0.089118
 1935 Fit      -0.079973
 1936 Fit      -0.076739
 1937 Fit      -0.093399
 1938 Fit      -0.085931
 1939 Fit      -0.077309
 1940 Fit      -0.071597
 1941 Fit      -0.069497
 1942 Fit      -0.075859
 1943 Fit      -0.070929
 1944 Fit      -0.067155
 1945 Fit      -0.086689
 1946 Fit      -0.090293
 1947 Fit      -0.080609
 1948 Fit      -0.091205
 1949 Fit      -0.073296
 1950 Fit      -0.072156
 1951 Fit      -0.074354
 1952 Fit      -0.069165
 1953 Fit      -0.075586
 1954 Fit      -0.065900
 1955 Fit      -0.064376
 1956 Fit      -0.065351
 1957 Fit      -0.064079
 1958 Fit      -0.069200
 1959 Fit      -0.061799
 1960 Fit      -0.061446
 1961 Fit      -0.062885
 1962 Fit      -0.061663
 -----------------------------------------------------------------
 Leave Link  602 at Thu Jun 22 15:54:51 2006, MaxMem=  117964800 cpu:       3.5

 Test job not archived.
 1\1\GINC-LC5\FOpt\RHF\6-31G(d)\C16H23N3O6P1(1-)\VVV900\22-Jun-2006\0\\
 # OPT HF/6-31G* POP=MK IOP(6/33=2)\\For resp COMPLEX (SERINE PROTEASE/
 INHIBITOR) 26-JUN-96 1CGH\\-1,1\C,-0.3607390178,-3.7466517126,-1.21887
 41095\C,0.8542243409,-3.3336266145,-0.4168987831\O,1.9744993392,-3.641
 4915701,-0.7779697995\N,0.5931650045,-2.6591808491,0.70832053\C,1.6175
 410353,-1.9652094924,1.4740765452\C,2.336555817,-2.8959151916,2.459929
 8872\O,2.2912469706,-2.728387998,3.653273746\C,0.9791215877,-0.7954857
 038,2.2237448522\O,0.3769334277,0.0857930192,1.3110528179\H,-0.3430685
 927,-2.2920855454,0.8103417116\N,3.051217586,-3.8846300013,1.893892280
 5\C,3.7123871424,-4.8799501555,2.6995245312\H,2.9736934644,-4.00869793
 41,0.9058455946\C,-0.40222756,4.7609049287,1.3312374819\C,-1.243284444
 5,3.7812175753,0.5367116462\O,-2.3628747231,4.060433811,0.190623058\N,
 -0.6327195129,2.6089952358,0.2643598853\C,-1.3563303239,1.4063450997,-
 0.1275680131\P,-1.2768277516,0.191733664,1.2586646721\O,-1.7818191698,
 -1.1314075885,0.7910985677\O,-1.7609979829,0.8116989861,2.5019992706\C
 ,-0.844280974,0.8163516833,-1.4472047257\C,-0.8706554064,1.7144656735,
 -2.6728979217\C,-1.7978891728,2.7360653317,-2.8535064376\C,0.042570163
 1,1.4765894553,-3.6978842588\C,-1.8107040766,3.4848094897,-4.020995109
 9\C,0.0294533726,2.2196409093,-4.8661161896\C,-0.9022658171,3.23099438
 32,-5.0345196388\H,0.2296749388,2.4372714099,0.7324652818\H,-0.5438339
 675,-4.8031841932,-1.0482374714\H,2.3601346337,-1.5780747114,0.7837010
 615\H,0.2675577412,-1.1613336437,2.9510731805\H,1.7466532551,-0.261947
 4559,2.7669642743\H,4.2650623188,-5.5420763279,2.0447875495\H,4.403566
 3263,-4.4164001937,3.3924663355\H,0.6488748221,4.7062297126,1.06913204
 94\H,0.1727985809,0.4695453859,-1.2993666816\H,-2.4962962648,2.9750699
 775,-2.0749134477\H,0.7745275974,0.6957021663,-3.5778840654\H,-2.53403
 04836,4.2742837837,-4.1316549089\H,0.7482039743,2.0110211907,-5.640308
 3854\H,-0.9154655955,3.8155471876,-5.9384031679\H,-1.4365999388,-0.070
 4246248,-1.6499604278\H,-2.3973324468,1.6807968318,-0.2188311845\H,3.0
 058280864,-5.4684848142,3.276267166\H,-0.1394875374,-3.614932709,-2.27
 05564743\H,-1.243669251,-3.1836276618,-0.9491870572\H,-0.5031517078,4.
 5238203681,2.385921969\H,-0.7696281113,5.7633029099,1.1611783236\\Vers
 ion=IA32L-G03RevC.02\State=1-A\HF=-1572.7408055\RMSD=4.106e-09\RMSF=6.
 702e-06\Dipole=2.3350591,-0.1792232,-2.3865939\PG=C01 [X(C16H23N3O6P1)
 ]\\@


 You can't act like a skunk without someone's getting wind of it.
 -- Lorene Workman
 Job cpu time:  0 days 23 hours 47 minutes  3.0 seconds.
 File lengths (MBytes):  RWF=    129 Int=      0 D2E=      0 Chk=     18 Scr=      1
 Normal termination of Gaussian 03 at Thu Jun 22 15:54:53 2006.
 