 Entering Link 1 = C:\G03W\l1.exe PID=     18448.
  
 Copyright (c) 1988,1990,1992,1993,1995,1998,2003, Gaussian, Inc.
                  All Rights Reserved.
  
 This is the Gaussian(R) 03 program.  It is based on the
 the Gaussian(R) 98 system (copyright 1998, Gaussian, Inc.),
 the Gaussian(R) 94 system (copyright 1995, Gaussian, Inc.),
 the Gaussian 92(TM) system (copyright 1992, Gaussian, Inc.),
 the Gaussian 90(TM) system (copyright 1990, Gaussian, Inc.),
 the Gaussian 88(TM) system (copyright 1988, Gaussian, Inc.),
 the Gaussian 86(TM) system (copyright 1986, Carnegie Mellon
 University), and the Gaussian 82(TM) system (copyright 1983,
 Carnegie Mellon University). Gaussian is a federally registered
 trademark of Gaussian, Inc.
  
 This software contains proprietary and confidential information,
 including trade secrets, belonging to Gaussian, Inc.
  
 This software is provided under written license and may be
 used, copied, transmitted, or stored only in accord with that
 written license.
  
 The following legend is applicable only to US Government
 contracts under DFARS:
  
                    RESTRICTED RIGHTS LEGEND
  
 Use, duplication or disclosure by the US Government is subject
 to restrictions as set forth in subparagraph (c)(1)(ii) of the
 Rights in Technical Data and Computer Software clause at DFARS
 252.227-7013.
  
 Gaussian, Inc.
 Carnegie Office Park, Building 6, Pittsburgh, PA 15106 USA
  
 The following legend is applicable only to US Government
 contracts under FAR:
  
                    RESTRICTED RIGHTS LEGEND
  
 Use, reproduction and disclosure by the US Government is subject
 to restrictions as set forth in subparagraph (c) of the
 Commercial Computer Software - Restricted Rights clause at FAR
 52.227-19.
  
 Gaussian, Inc.
 Carnegie Office Park, Building 6, Pittsburgh, PA 15106 USA
  
  
 ---------------------------------------------------------------
 Warning -- This program may not be used in any manner that
 competes with the business of Gaussian, Inc. or will provide
 assistance to any competitor of Gaussian, Inc.  The licensee
 of this program is prohibited from giving any competitor of
 Gaussian, Inc. access to this program.  By using this program,
 the user acknowledges that Gaussian, Inc. is engaged in the
 business of creating and licensing software in the field of
 computational chemistry and represents and warrants to the
 licensee that it is not a competitor of Gaussian, Inc. and that
 it will not use this program in any manner prohibited above.
 ---------------------------------------------------------------
  

 Cite this work as:
 Gaussian 03, Revision B.03,
 M. J. Frisch, G. W. Trucks, H. B. Schlegel, G. E. Scuseria, 
 M. A. Robb, J. R. Cheeseman, J. A. Montgomery, Jr., T. Vreven, 
 K. N. Kudin, J. C. Burant, J. M. Millam, S. S. Iyengar, J. Tomasi, 
 V. Barone, B. Mennucci, M. Cossi, G. Scalmani, N. Rega, 
 G. A. Petersson, H. Nakatsuji, M. Hada, M. Ehara, K. Toyota, 
 R. Fukuda, J. Hasegawa, M. Ishida, T. Nakajima, Y. Honda, O. Kitao, 
 H. Nakai, M. Klene, X. Li, J. E. Knox, H. P. Hratchian, J. B. Cross, 
 C. Adamo, J. Jaramillo, R. Gomperts, R. E. Stratmann, O. Yazyev, 
 A. J. Austin, R. Cammi, C. Pomelli, J. W. Ochterski, P. Y. Ayala, 
 K. Morokuma, G. A. Voth, P. Salvador, J. J. Dannenberg, 
 V. G. Zakrzewski, S. Dapprich, A. D. Daniels, M. C. Strain, 
 O. Farkas, D. K. Malick, A. D. Rabuck, K. Raghavachari, 
 J. B. Foresman, J. V. Ortiz, Q. Cui, A. G. Baboul, S. Clifford, 
 J. Cioslowski, B. B. Stefanov, G. Liu, A. Liashenko, P. Piskorz, 
 I. Komaromi, R. L. Martin, D. J. Fox, T. Keith, M. A. Al-Laham, 
 C. Y. Peng, A. Nanayakkara, M. Challacombe, P. M. W. Gill, 
 B. Johnson, W. Chen, M. W. Wong, C. Gonzalez, and J. A. Pople, 
 Gaussian, Inc., Pittsburgh PA, 2003.
 
 *********************************************
 Gaussian 03:  x86-Win32-G03RevB.03 4-May-2003
                  26-Jun-2006 
 *********************************************
 ----------------------------------
 # Opt HF/6-31g* Pop=MK iop(6/33=2)
 ----------------------------------
 1/18=20,38=1/1,3;
 2/9=110,17=6,18=5,40=1/2;
 3/5=1,6=6,7=1,11=9,16=1,25=1,30=1/1,2,3;
 4//1;
 5/5=2,38=5/2;
 6/7=2,8=2,9=2,10=2,15=8,20=1,28=1,33=2/1,2;
 7//1,2,3,16;
 1/18=20/3(1);
 99//99;
 2/9=110/2;
 3/5=1,6=6,7=1,11=9,16=1,25=1,30=1/1,2,3;
 4/5=5,16=3/1;
 5/5=2,38=5/2;
 7//1,2,3,16;
 1/18=20/3(-5);
 2/9=110/2;
 6/7=2,8=2,9=2,10=2,15=8,19=2,20=1,28=1,33=2/1,2;
 99/9=1/99;
 ---
 SIN
 ---
 Symbolic Z-matrix:
 Charge = -1 Multiplicity = 1
 C1                    13.529    47.374   -0.405 
 O1                    12.629    47.356   -1.278 
 O2                    14.879    47.872   -0.578 
 C2                    13.079    46.708    0.91 
 C3                    14.191    45.931    1.666 
 C4                    13.679    45.298    2.936 
 O3                    13.739    45.94     3.995 
 H11                   12.35     46.051    0.719 
 H12                   12.74     47.407    1.539 
 H13                   14.943    46.553    1.885 
 H14                   14.531    45.189    1.089 
 N                     12.81     44.301    2.755 
 H                     13.554    43.738    2.367 
 C                     12.041    43.758    3.871 
 H                     12.147    44.395    4.749 
 H18                   12.374    42.841    4.091 
 H19                   11.075    43.71     3.618 
 

 GradGradGradGradGradGradGradGradGradGradGradGradGradGradGradGradGradGrad
 Berny optimization.
 Initialization pass.
                           ----------------------------
                           !    Initial Parameters    !
                           ! (Angstroms and Degrees)  !
 --------------------------                            --------------------------
 ! Name  Definition              Value          Derivative Info.                !
 --------------------------------------------------------------------------------
 ! R1    R(1,2)                  1.254          estimate D2E/DX2                !
 ! R2    R(1,3)                  1.4493         estimate D2E/DX2                !
 ! R3    R(1,4)                  1.5412         estimate D2E/DX2                !
 ! R4    R(4,5)                  1.553          estimate D2E/DX2                !
 ! R5    R(4,8)                  0.9998         estimate D2E/DX2                !
 ! R6    R(4,9)                  0.9996         estimate D2E/DX2                !
 ! R7    R(5,6)                  1.5086         estimate D2E/DX2                !
 ! R8    R(5,10)                 1.0002         estimate D2E/DX2                !
 ! R9    R(5,11)                 0.9995         estimate D2E/DX2                !
 ! R10   R(6,7)                  1.2399         estimate D2E/DX2                !
 ! R11   R(6,12)                 1.3349         estimate D2E/DX2                !
 ! R12   R(12,13)                1.0105         estimate D2E/DX2                !
 ! R13   R(12,14)                1.46           estimate D2E/DX2                !
 ! R14   R(14,15)                1.0899         estimate D2E/DX2                !
 ! R15   R(14,16)                1.0001         estimate D2E/DX2                !
 ! R16   R(14,17)                0.9997         estimate D2E/DX2                !
 ! A1    A(2,1,3)              126.1838         estimate D2E/DX2                !
 ! A2    A(2,1,4)              112.2251         estimate D2E/DX2                !
 ! A3    A(3,1,4)              121.4877         estimate D2E/DX2                !
 ! A4    A(1,4,5)              114.992          estimate D2E/DX2                !
 ! A5    A(1,4,8)              109.5038         estimate D2E/DX2                !
 ! A6    A(1,4,9)              109.4963         estimate D2E/DX2                !
 ! A7    A(5,4,8)              106.6376         estimate D2E/DX2                !
 ! A8    A(5,4,9)              106.6415         estimate D2E/DX2                !
 ! A9    A(8,4,9)              109.4182         estimate D2E/DX2                !
 ! A10   A(4,5,6)              112.1318         estimate D2E/DX2                !
 ! A11   A(4,5,10)             109.5001         estimate D2E/DX2                !
 ! A12   A(4,5,11)             109.5092         estimate D2E/DX2                !
 ! A13   A(6,5,10)             109.3779         estimate D2E/DX2                !
 ! A14   A(6,5,11)             106.8541         estimate D2E/DX2                !
 ! A15   A(10,5,11)            109.4084         estimate D2E/DX2                !
 ! A16   A(5,6,7)              119.0365         estimate D2E/DX2                !
 ! A17   A(5,6,12)             114.8466         estimate D2E/DX2                !
 ! A18   A(7,6,12)             122.2796         estimate D2E/DX2                !
 ! A19   A(6,12,13)             89.363          estimate D2E/DX2                !
 ! A20   A(6,12,14)            121.1319         estimate D2E/DX2                !
 ! A21   A(13,12,14)           118.3004         estimate D2E/DX2                !
 ! A22   A(12,14,15)           110.3142         estimate D2E/DX2                !
 ! A23   A(12,14,16)           109.4985         estimate D2E/DX2                !
 ! A24   A(12,14,17)           109.4723         estimate D2E/DX2                !
 ! A25   A(15,14,16)           109.0446         estimate D2E/DX2                !
 ! A26   A(15,14,17)           109.0202         estimate D2E/DX2                !
 ! A27   A(16,14,17)           109.4741         estimate D2E/DX2                !
 ! D1    D(2,1,4,5)            144.8258         estimate D2E/DX2                !
 ! D2    D(2,1,4,8)             24.8108         estimate D2E/DX2                !
 ! D3    D(2,1,4,9)            -95.1596         estimate D2E/DX2                !
 ! D4    D(3,1,4,5)            -31.696          estimate D2E/DX2                !
 ! D5    D(3,1,4,8)           -151.711          estimate D2E/DX2                !
 ! D6    D(3,1,4,9)             88.3186         estimate D2E/DX2                !
 ! D7    D(1,4,5,6)           -179.5897         estimate D2E/DX2                !
 ! D8    D(1,4,5,10)            58.809          estimate D2E/DX2                !
 ! D9    D(1,4,5,11)           -61.155          estimate D2E/DX2                !
 ! D10   D(8,4,5,6)            -58.0056         estimate D2E/DX2                !
 ! D11   D(8,4,5,10)          -179.6069         estimate D2E/DX2                !
 ! D12   D(8,4,5,11)            60.4291         estimate D2E/DX2                !
 ! D13   D(9,4,5,6)             58.833          estimate D2E/DX2                !
 ! D14   D(9,4,5,10)           -62.7684         estimate D2E/DX2                !
 ! D15   D(9,4,5,11)           177.2676         estimate D2E/DX2                !
 ! D16   D(4,5,6,7)            -90.6026         estimate D2E/DX2                !
 ! D17   D(4,5,6,12)            67.8622         estimate D2E/DX2                !
 ! D18   D(10,5,6,7)            31.0687         estimate D2E/DX2                !
 ! D19   D(10,5,6,12)         -170.4665         estimate D2E/DX2                !
 ! D20   D(11,5,6,7)           149.4032         estimate D2E/DX2                !
 ! D21   D(11,5,6,12)          -52.132          estimate D2E/DX2                !
 ! D22   D(5,6,12,13)           68.3549         estimate D2E/DX2                !
 ! D23   D(5,6,12,14)         -168.4713         estimate D2E/DX2                !
 ! D24   D(7,6,12,13)         -133.9542         estimate D2E/DX2                !
 ! D25   D(7,6,12,14)          -10.7804         estimate D2E/DX2                !
 ! D26   D(6,12,14,15)          10.7896         estimate D2E/DX2                !
 ! D27   D(6,12,14,16)        -109.2233         estimate D2E/DX2                !
 ! D28   D(6,12,14,17)         130.7557         estimate D2E/DX2                !
 ! D29   D(13,12,14,15)        118.8773         estimate D2E/DX2                !
 ! D30   D(13,12,14,16)         -1.1357         estimate D2E/DX2                !
 ! D31   D(13,12,14,17)       -121.1566         estimate D2E/DX2                !
 --------------------------------------------------------------------------------
 Trust Radius=3.00D-01 FncErr=1.00D-07 GrdErr=1.00D-07
 Number of steps in this run=  84 maximum allowed number of steps= 102.
 GradGradGradGradGradGradGradGradGradGradGradGradGradGradGradGradGradGrad

                          Input orientation:                          
 ---------------------------------------------------------------------
 Center     Atomic     Atomic              Coordinates (Angstroms)
 Number     Number      Type              X           Y           Z
 ---------------------------------------------------------------------
    1          6             0       13.529000   47.374000   -0.405000
    2          8             0       12.629000   47.356000   -1.278000
    3          8             0       14.879000   47.872000   -0.578000
    4          6             0       13.079000   46.708000    0.910000
    5          6             0       14.191000   45.931000    1.666000
    6          6             0       13.679000   45.298000    2.936000
    7          8             0       13.739000   45.940000    3.995000
    8          1             0       12.350000   46.051000    0.719000
    9          1             0       12.740000   47.407000    1.539000
   10          1             0       14.943000   46.553000    1.885000
   11          1             0       14.531000   45.189000    1.089000
   12          7             0       12.810000   44.301000    2.755000
   13          1             0       13.554000   43.738000    2.367000
   14          6             0       12.041000   43.758000    3.871000
   15          1             0       12.147000   44.395000    4.749000
   16          1             0       12.374000   42.841000    4.091000
   17          1             0       11.075000   43.710000    3.618000
 ---------------------------------------------------------------------
                    Distance matrix (angstroms):
                    1          2          3          4          5
     1  C    0.000000
     2  O    1.253975   0.000000
     3  O    1.449287   2.412210   0.000000
     4  C    1.541195   2.325886   2.609414   0.000000
     5  C    2.609508   3.624583   3.045712   1.553000   0.000000
     6  C    3.936313   4.805794   4.518149   2.540231   1.508553
     7  O    4.632543   5.571507   5.093580   3.246945   2.372473
     8  H    2.098510   2.401848   3.375513   0.999785   2.073762
     9  H    2.098272   2.819647   3.045199   0.999581   2.073670
    10  H    2.813812   4.000497   2.794678   2.109300   1.000174
    11  H    2.830241   3.730440   3.177811   2.108959   0.999546
    12  N    4.466082   5.062694   5.304874   3.044673   2.397912
    13  H    4.572210   5.218388   5.245818   3.342061   2.388811
    14  C    5.794288   6.309005   6.691251   4.306677   3.769145
    15  H    6.111308   6.732353   6.923170   4.577829   4.005262
    16  H    6.488153   7.019716   7.306541   5.056627   4.327842
    17  H    5.969216   6.299131   7.028448   4.509688   4.295649
                    6          7          8          9         10
     6  C    0.000000
     7  O    1.239857   0.000000
     8  H    2.692274   3.560031   0.000000
     9  H    2.698372   3.030186   1.631942   0.000000
    10  H    2.068169   2.505491   2.887076   2.387937   0.000000
    11  H    2.036957   3.104207   2.374175   2.886123   1.632132
    12  N    1.334890   2.255429   2.723857   3.336284   3.221505
    13  H    1.665229   2.744706   3.084719   3.848343   3.175826
    14  C    2.434927   2.767617   3.910043   4.386573   4.491973
    15  H    2.539567   2.343076   4.361702   4.441609   4.547205
    16  H    3.012291   3.387660   4.655648   5.243569   5.024454
    17  H    3.125329   3.494556   3.938287   4.556564   5.103662
                   11         12         13         14         15
    11  H    0.000000
    12  N    2.554592   0.000000
    13  H    2.166383   1.010470   0.000000
    14  C    3.998423   1.460023   2.133444   0.000000
    15  H    4.439537   2.103436   2.843452   1.089903   0.000000
    16  H    4.379242   2.026473   2.273584   1.000089   1.702765
    17  H    4.530697   2.025901   2.776909   0.999734   1.702225
                   16         17
    16  H    0.000000
    17  H    1.632878   0.000000
 Stoichiometry    C5H8NO3(1-)
 Framework group  C1[X(C5H8NO3)]
 Deg. of freedom    45
 Full point group                 C1      NOp   1
 Largest Abelian subgroup         C1      NOp   1
 Largest concise Abelian subgroup C1      NOp   1
                         Standard orientation:                         
 ---------------------------------------------------------------------
 Center     Atomic     Atomic              Coordinates (Angstroms)
 Number     Number      Type              X           Y           Z
 ---------------------------------------------------------------------
    1          6             0       -2.423347    0.232706   -0.110245
    2          8             0       -2.961864    1.358190   -0.235698
    3          8             0       -3.075473   -0.983185    0.333347
    4          6             0       -0.910423    0.274682   -0.401071
    5          6             0       -0.048101   -0.678798    0.470184
    6          6             0        1.420347   -0.578590    0.139497
    7          8             0        1.894572   -1.327947   -0.727001
    8          1             0       -0.565285    1.199264   -0.241078
    9          1             0       -0.746551    0.018950   -1.353390
   10          1             0       -0.354666   -1.621479    0.337072
   11          1             0       -0.145822   -0.430636    1.433491
   12          7             0        1.991314    0.582458    0.467969
   13          1             0        1.874774    0.350570    1.444542
   14          6             0        3.328241    0.927196   -0.006844
   15          1             0        3.652101    0.220969   -0.771204
   16          1             0        3.971917    0.898169    0.758020
   17          1             0        3.316160    1.847344   -0.397549
 ---------------------------------------------------------------------
 Rotational constants (GHZ):      3.7588539      0.7087234      0.6363013
 Standard basis: 6-31G(d) (6D, 7F)
 There are   151 symmetry adapted basis functions of A   symmetry.
 Integral buffers will be    262144 words long.
 Raffenetti 1 integral format.
 Two-electron integral symmetry is turned on.
   151 basis functions,   284 primitive gaussians,   151 cartesian basis functions
    35 alpha electrons       35 beta electrons
       nuclear repulsion energy       432.7521050661 Hartrees.
 NAtoms=   17 NActive=   17 NUniq=   17 SFac= 1.00D+00 NAtFMM=   60 Big=F
 One-electron integrals computed using PRISM.
 NBasis=   151 RedAO= T  NBF=   151
 NBsUse=   151 1.00D-06 NBFU=   151
 Harris functional with IExCor=  205 diagonalized for initial guess.
 ExpMin= 1.61D-01 ExpMax= 5.48D+03 ExpMxC= 8.25D+02 IAcc=1 IRadAn=         1 AccDes= 1.00D-06
 HarFok:  IExCor= 205 AccDes= 1.00D-06 IRadAn=         1 IDoV=1
 ScaDFX=  1.000000  1.000000  1.000000  1.000000
 Initial guess orbital symmetries:
       Occupied  (A) (A) (A) (A) (A) (A) (A) (A) (A) (A) (A) (A)
                 (A) (A) (A) (A) (A) (A) (A) (A) (A) (A) (A) (A)
                 (A) (A) (A) (A) (A) (A) (A) (A) (A) (A) (A)
       Virtual   (A) (A) (A) (A) (A) (A) (A) (A) (A) (A) (A) (A)
                 (A) (A) (A) (A) (A) (A) (A) (A) (A) (A) (A) (A)
                 (A) (A) (A) (A) (A) (A) (A) (A) (A) (A) (A) (A)
                 (A) (A) (A) (A) (A) (A) (A) (A) (A) (A) (A) (A)
                 (A) (A) (A) (A) (A) (A) (A) (A) (A) (A) (A) (A)
                 (A) (A) (A) (A) (A) (A) (A) (A) (A) (A) (A) (A)
                 (A) (A) (A) (A) (A) (A) (A) (A) (A) (A) (A) (A)
                 (A) (A) (A) (A) (A) (A) (A) (A) (A) (A) (A) (A)
                 (A) (A) (A) (A) (A) (A) (A) (A) (A) (A) (A) (A)
                 (A) (A) (A) (A) (A) (A) (A) (A)
 The electronic state of the initial guess is 1-A.
 Requested convergence on RMS density matrix=1.00D-08 within 128 cycles.
 Requested convergence on MAX density matrix=1.00D-06.
 Requested convergence on             energy=1.00D-06.
 No special actions if energy rises.
 Integral accuracy reduced to 1.0D-05 until final iterations.
 Initial convergence to 1.0D-05 achieved.  Increase integral accuracy.
 SCF Done:  E(RHF) =  -472.955670152     A.U. after   16 cycles
             Convg  =    0.8776D-08             -V/T =  2.0007
             S**2   =   0.0000

 **********************************************************************

            Population analysis using the SCF density.

 **********************************************************************

 Orbital symmetries:
 BldTbl:  Degeneracy threshold= 1.00D-02
       Occupied  (A) (A) (A) (A) (A) (A) (A) (A) (A) (A) (A) (A)
                 (A) (A) (A) (A) (A) (A) (A) (A) (A) (A) (A) (A)
                 (A) (A) (A) (A) (A) (A) (A) (A) (A) (A) (A)
       Virtual   (A) (A) (A) (A) (A) (A) (A) (A) (A) (A) (A) (A)
                 (A) (A) (A) (A) (A) (A) (A) (A) (A) (A) (A) (A)
                 (A) (A) (A) (A) (A) (A) (A) (A) (A) (A) (A) (A)
                 (A) (A) (A) (A) (A) (A) (A) (A) (A) (A) (A) (A)
                 (A) (A) (A) (A) (A) (A) (A) (A) (A) (A) (A) (A)
                 (A) (A) (A) (A) (A) (A) (A) (A) (A) (A) (A) (A)
                 (A) (A) (A) (A) (A) (A) (A) (A) (A) (A) (A) (A)
                 (A) (A) (A) (A) (A) (A) (A) (A) (A) (A) (A) (A)
                 (A) (A) (A) (A) (A) (A) (A) (A) (A) (A) (A) (A)
                 (A) (A) (A) (A) (A) (A) (A) (A)
 The electronic state is 1-A.
 Alpha  occ. eigenvalues --  -20.41057 -20.30965 -20.26911 -15.48019 -11.22501
 Alpha  occ. eigenvalues --  -11.14983 -11.14942 -11.07427 -11.05331  -1.26387
 Alpha  occ. eigenvalues --   -1.13988  -1.13827  -0.97833  -0.93632  -0.87860
 Alpha  occ. eigenvalues --   -0.76942  -0.64382  -0.59346  -0.56214  -0.54716
 Alpha  occ. eigenvalues --   -0.53005  -0.49574  -0.46978  -0.45879  -0.41327
 Alpha  occ. eigenvalues --   -0.40398  -0.39234  -0.37100  -0.32679  -0.30236
 Alpha  occ. eigenvalues --   -0.30024  -0.29423  -0.18744  -0.17385  -0.15953
 Alpha virt. eigenvalues --    0.29210   0.31097   0.36366   0.39683   0.40862
 Alpha virt. eigenvalues --    0.41952   0.44054   0.45247   0.47701   0.48980
 Alpha virt. eigenvalues --    0.52637   0.54525   0.57937   0.60097   0.63226
 Alpha virt. eigenvalues --    0.68479   0.72299   0.75420   0.80076   0.84018
 Alpha virt. eigenvalues --    0.87217   0.89607   0.92437   0.96925   0.98399
 Alpha virt. eigenvalues --    1.00556   1.01879   1.04023   1.06700   1.09370
 Alpha virt. eigenvalues --    1.11605   1.13803   1.15278   1.17734   1.22381
 Alpha virt. eigenvalues --    1.22765   1.26101   1.27879   1.30549   1.34686
 Alpha virt. eigenvalues --    1.35192   1.36594   1.38554   1.39316   1.41137
 Alpha virt. eigenvalues --    1.41800   1.43930   1.45225   1.47494   1.48333
 Alpha virt. eigenvalues --    1.49405   1.53989   1.57191   1.59697   1.61869
 Alpha virt. eigenvalues --    1.62595   1.70147   1.75635   1.78369   1.80459
 Alpha virt. eigenvalues --    1.92229   1.93958   1.97317   2.01012   2.02600
 Alpha virt. eigenvalues --    2.10785   2.12567   2.21346   2.22936   2.24936
 Alpha virt. eigenvalues --    2.26434   2.28052   2.30754   2.34466   2.36666
 Alpha virt. eigenvalues --    2.38160   2.39066   2.41257   2.44171   2.47533
 Alpha virt. eigenvalues --    2.48605   2.49771   2.52810   2.53834   2.59970
 Alpha virt. eigenvalues --    2.63713   2.64570   2.75185   2.77100   2.83608
 Alpha virt. eigenvalues --    2.84645   2.89966   2.93826   2.97360   3.01424
 Alpha virt. eigenvalues --    3.04166   3.09433   3.15124   3.17600   3.21537
 Alpha virt. eigenvalues --    3.25434   3.37343   3.40605   3.45258   3.53265
 Alpha virt. eigenvalues --    3.58626   3.60564   4.42063   4.49838   4.57336
 Alpha virt. eigenvalues --    4.67708   4.73372   4.81075   4.86230   5.01384
 Alpha virt. eigenvalues --    5.17515
          Condensed to atoms (all electrons):
              1          2          3          4          5          6
     1  C    4.147503   0.483107   0.423116   0.283463  -0.027254   0.002968
     2  O    0.483107   8.388442  -0.061112  -0.110056   0.002603  -0.000057
     3  O    0.423116  -0.061112   8.574549  -0.091468   0.009790   0.000352
     4  C    0.283463  -0.110056  -0.091468   5.355953   0.295913  -0.043012
     5  C   -0.027254   0.002603   0.009790   0.295913   5.223568   0.361216
     6  C    0.002968  -0.000057   0.000352  -0.043012   0.361216   4.526722
     7  O   -0.000040   0.000000   0.000000  -0.002859  -0.076586   0.553413
     8  H   -0.023694   0.007884   0.002140   0.381393  -0.048033  -0.006538
     9  H   -0.018989   0.000339   0.001531   0.378421  -0.049660  -0.002053
    10  H    0.000300   0.000145   0.008402  -0.024467   0.386502  -0.037089
    11  H   -0.002717   0.000358   0.000767  -0.037462   0.368351  -0.045567
    12  N   -0.000087  -0.000004  -0.000002  -0.004568  -0.107238   0.189622
    13  H   -0.000032   0.000000   0.000000   0.000714  -0.009134  -0.028557
    14  C    0.000004   0.000000   0.000000  -0.000176   0.005068  -0.027893
    15  H    0.000000   0.000000   0.000000  -0.000044   0.000363  -0.003677
    16  H    0.000000   0.000000   0.000000  -0.000009  -0.000123  -0.000229
    17  H    0.000000   0.000000   0.000000   0.000081  -0.000070   0.002914
              7          8          9         10         11         12
     1  C   -0.000040  -0.023694  -0.018989   0.000300  -0.002717  -0.000087
     2  O    0.000000   0.007884   0.000339   0.000145   0.000358  -0.000004
     3  O    0.000000   0.002140   0.001531   0.008402   0.000767  -0.000002
     4  C   -0.002859   0.381393   0.378421  -0.024467  -0.037462  -0.004568
     5  C   -0.076586  -0.048033  -0.049660   0.386502   0.368351  -0.107238
     6  C    0.553413  -0.006538  -0.002053  -0.037089  -0.045567   0.189622
     7  O    8.241999  -0.000009   0.003567   0.001648   0.005015  -0.104670
     8  H   -0.000009   0.522737  -0.025414   0.004762  -0.002397   0.006492
     9  H    0.003567  -0.025414   0.533908  -0.003107   0.006461  -0.000315
    10  H    0.001648   0.004762  -0.003107   0.465339  -0.025269   0.005722
    11  H    0.005015  -0.002397   0.006461  -0.025269   0.586417  -0.000280
    12  N   -0.104670   0.006492  -0.000315   0.005722  -0.000280   7.283709
    13  H    0.004160   0.000016   0.000099  -0.000627   0.004208   0.300144
    14  C   -0.005631  -0.000112  -0.000026  -0.000097  -0.000415   0.230052
    15  H    0.014408   0.000012  -0.000013   0.000000  -0.000038  -0.038006
    16  H    0.000472   0.000010   0.000000   0.000007   0.000002  -0.037663
    17  H    0.000442  -0.000049   0.000000  -0.000002  -0.000005  -0.045895
             13         14         15         16         17
     1  C   -0.000032   0.000004   0.000000   0.000000   0.000000
     2  O    0.000000   0.000000   0.000000   0.000000   0.000000
     3  O    0.000000   0.000000   0.000000   0.000000   0.000000
     4  C    0.000714  -0.000176  -0.000044  -0.000009   0.000081
     5  C   -0.009134   0.005068   0.000363  -0.000123  -0.000070
     6  C   -0.028557  -0.027893  -0.003677  -0.000229   0.002914
     7  O    0.004160  -0.005631   0.014408   0.000472   0.000442
     8  H    0.000016  -0.000112   0.000012   0.000010  -0.000049
     9  H    0.000099  -0.000026  -0.000013   0.000000   0.000000
    10  H   -0.000627  -0.000097   0.000000   0.000007  -0.000002
    11  H    0.004208  -0.000415  -0.000038   0.000002  -0.000005
    12  N    0.300144   0.230052  -0.038006  -0.037663  -0.045895
    13  H    0.404415  -0.027065   0.003143  -0.005115   0.001525
    14  C   -0.027065   4.905427   0.398475   0.404286   0.412547
    15  H    0.003143   0.398475   0.472109  -0.024063  -0.030294
    16  H   -0.005115   0.404286  -0.024063   0.547092  -0.039566
    17  H    0.001525   0.412547  -0.030294  -0.039566   0.515671
 Mulliken atomic charges:
              1
     1  C    0.732354
     2  O   -0.711650
     3  O   -0.868064
     4  C   -0.381816
     5  C   -0.335276
     6  C    0.557462
     7  O   -0.635330
     8  H    0.180799
     9  H    0.175251
    10  H    0.217830
    11  H    0.142569
    12  N   -0.677014
    13  H    0.352106
    14  C   -0.294445
    15  H    0.207625
    16  H    0.154898
    17  H    0.182700
 Sum of Mulliken charges=  -1.00000
 Atomic charges with hydrogens summed into heavy atoms:
              1
     1  C    0.732354
     2  O   -0.711650
     3  O   -0.868064
     4  C   -0.025765
     5  C    0.025124
     6  C    0.557462
     7  O   -0.635330
     8  H    0.000000
     9  H    0.000000
    10  H    0.000000
    11  H    0.000000
    12  N   -0.324908
    13  H    0.000000
    14  C    0.250778
    15  H    0.000000
    16  H    0.000000
    17  H    0.000000
 Sum of Mulliken charges=  -1.00000
 Entering OneElI...
 OneElI was handed  6254435 working-precision words.
 Multipole integrals L=0 to 4 MinM= 0 MaxM= 0.
 Requested accuracy = 0.1000D-12
 PRISM was handed     6156448 working-precision words and  1233 shell-pairs
 Electronic moments (au):
   -70.00000000     5.47638983     0.76906606     0.74519647
 -1382.50191114  -259.10313872  -100.19746960     4.53238304
     5.74285332    -0.69813720   433.43945010   -10.29895519
    -5.59886515    57.40192284  -667.26789086    17.45405723
   -83.94935196    36.59741761    62.15852095  -257.58631027
-45100.54410026 -2010.27329495  -507.18677416 -2686.17811470
   413.69180131   443.30083018   -32.50268705    -2.36500116
   -37.07111351 -6001.32049522 -1613.89011508  -362.52349859
   188.04343985   218.08185830    43.33807185
 Electronic spatial extent (au):  <R**2>=  1741.8025
 Nuclear    moments (au):
    69.00000000     0.00000000     0.00000000     0.00000000
  1306.15891845   208.28711121    60.88146844     0.00000000
     0.00000000     0.00000000  -193.27268400    10.10774923
    10.11729765   -28.28235552   688.19817110   -15.00669122
    89.15147310   -33.55081495   -57.48517115   238.86076461
 39235.78671832  1124.06046091   201.52356641  2767.81955449
  -313.86181390  -385.21717981    25.53616553    29.09857831
    42.86627603  4823.94381527   793.20604100   158.57981727
  -163.87025141  -209.21140634   -42.02375860
 Total      moments (au):
    -1.00000000     5.47638983     0.76906606     0.74519647
   -76.34299269   -50.81602751   -39.31600115     4.53238304
     5.74285332    -0.69813720   240.16676610    -0.19120596
     4.51843250    29.11956732    20.93028024     2.44736601
     5.20212114     3.04660266     4.67334980   -18.72554566
 -5864.75738194  -886.21283403  -305.66320774    81.64143979
    99.82998740    58.08365037    -6.96652151    26.73357715
     5.79516252 -1177.37667995  -820.68407408  -203.94368131
    24.17318844     8.87045196     1.31431325
 Charge=    -1.0000 electrons
 Dipole moment (field-independent basis, Debye):
    X=    13.9196    Y=     1.9548    Z=     1.8941  Tot=    14.1832
 Quadrupole moment (field-independent basis, Debye-Ang):
   XX=  -102.6839   YY=   -68.3493   ZZ=   -52.8814
   XY=     6.0962   XZ=     7.7243   YZ=    -0.9390
 Traceless Quadrupole moment (field-independent basis, Debye-Ang):
   XX=   -28.0457   YY=     6.2889   ZZ=    21.7568
   XY=     6.0962   XZ=     7.7243   YZ=    -0.9390
 Octapole moment (field-independent basis, Debye-Ang**2):
  XXX=   170.9414  YYY=    -0.1361  ZZZ=     3.2160  XYY=    20.7262
  XXY=    14.8974  XXZ=     1.7419  XZZ=     3.7027  YZZ=     2.1685
  YYZ=     3.3263  XYZ=   -13.3281
 Hexadecapole moment (field-independent basis, Debye-Ang**3):
 XXXX= -2208.9487 YYYY=  -333.7902 ZZZZ=  -115.1274 XXXY=    30.7501
 XXXZ=    37.6008 YYYX=    21.8771 YYYZ=    -2.6239 ZZZX=    10.0691
 ZZZY=     2.1827 XXYY=  -443.4565 XXZZ=  -309.1089 YYZZ=   -76.8150
 XXYZ=     9.1048 YYXZ=     3.3410 ZZXY=     0.4950
 N-N= 4.327521050661D+02 E-N=-1.990330814723D+03  KE= 4.726193325639D+02
 Entering OneElI...
 OneElI was handed  6208257 working-precision words.
 Calculate electrostatic properties
    NBasis =   151  MinDer = 0  MaxDer = 0
    NGrid  =    17  NMatD  =   1
 Requested accuracy = 0.1000D-12
 PRISM was handed     6115381 working-precision words and  1189 shell-pairs
 --------------------------------------------------------
       Center         ----      EFG at Nuclei      ----
                      3XX-RR        3YY-RR        3ZZ-RR
 --------------------------------------------------------
     1   Atom        0.224753      0.300207     -0.524959
     2   Atom        1.178948     -0.658221     -0.520727
     3   Atom        0.781324     -0.862915      0.081591
     4   Atom       -0.027298      0.023534      0.003764
     5   Atom       -0.181301      0.137909      0.043392
     6   Atom        0.277868     -0.015164     -0.262704
     7   Atom        1.009368      0.047682     -1.057049
     8   Atom        0.164579     -0.397056      0.232477
     9   Atom        0.231929      0.209977     -0.441906
    10   Atom        0.184344     -0.421286      0.236941
    11   Atom        0.236154      0.217132     -0.453286
    12   Atom        0.095229      0.306894     -0.402123
    13   Atom        0.192063      0.191670     -0.383733
    14   Atom       -0.241747      0.144546      0.097201
    15   Atom        0.096725     -0.027427     -0.069298
    16   Atom       -0.070952      0.263943     -0.192991
    17   Atom        0.241832     -0.387607      0.145775
 --------------------------------------------------------
                        XY            XZ            YZ
 --------------------------------------------------------
     1   Atom       -0.066441     -0.143616     -0.190173
     2   Atom        0.887102     -0.473763     -0.221813
     3   Atom       -1.427402      0.289129      0.686935
     4   Atom        0.084145     -0.092116      0.117667
     5   Atom        0.018840      0.010592      0.036626
     6   Atom        0.158409     -0.353412      0.326862
     7   Atom        1.180511     -0.115884     -0.049902
     8   Atom       -0.237688     -0.045432     -0.109098
     9   Atom        0.036491      0.115589     -0.183433
    10   Atom       -0.208768     -0.030049     -0.091687
    11   Atom        0.016602      0.070197     -0.186028
    12   Atom       -0.666509      0.220643      0.048379
    13   Atom       -0.050245      0.045353      0.089381
    14   Atom       -0.105135      0.141728      0.027459
    15   Atom        0.086624      0.101290     -0.197684
    16   Atom        0.006850     -0.368275      0.021986
    17   Atom        0.005614      0.000770      0.275655
 --------------------------------------------------------


 ---------------------------------------------------------------------------------
              Nuclear Quadrupole in Principal Axis System
 ---------------------------------------------------------------------------------

       Atom             a.u.   MegaHertz   Gauss  10(-4) cm-1        Axes

              Baa    -0.5958   -79.953   -28.529   -26.670  0.1853  0.2171  0.9584
     1 C(13)  Bbb     0.2425    32.547    11.613    10.856  0.9307  0.2741 -0.2421
              Bcc     0.3533    47.407    16.916    15.813 -0.3152  0.9369 -0.1513
 
              Baa    -1.0187    73.710    26.302    24.587 -0.3600  0.9302  0.0718
     2 O(17)  Bbb    -0.6437    46.578    16.620    15.537  0.2428  0.0191  0.9699
              Bcc     1.6624  -120.288   -42.922   -40.124  0.9008  0.3666 -0.2327
 
              Baa    -1.9566   141.578    50.518    47.225  0.4626  0.8182 -0.3414
     3 O(17)  Bbb     0.3438   -24.875    -8.876    -8.297  0.2308  0.2606  0.9374
              Bcc     1.6128  -116.703   -41.643   -38.928  0.8560 -0.5125 -0.0683
 
              Baa    -0.1965   -26.362    -9.407    -8.793  0.5936 -0.5442  0.5929
     4 C(13)  Bbb     0.0647     8.685     3.099     2.897  0.8048  0.4054 -0.4336
              Bcc     0.1317    17.677     6.308     5.896 -0.0044  0.7345  0.6786
 
              Baa    -0.1827   -24.521    -8.750    -8.179  0.9978 -0.0543 -0.0379
     5 C(13)  Bbb     0.0309     4.151     1.481     1.385  0.0182 -0.3267  0.9449
              Bcc     0.1518    20.370     7.268     6.795  0.0637  0.9436  0.3250
 
              Baa    -0.6464   -86.734   -30.949   -28.931  0.3828 -0.4988  0.7776
     6 C(13)  Bbb     0.1938    26.009     9.281     8.676  0.2293  0.8667  0.4430
              Bcc     0.4525    60.725    21.668    20.256  0.8949 -0.0087 -0.4462
 
              Baa    -1.0641    76.999    27.475    25.684  0.0764 -0.0364  0.9964
     7 O(17)  Bbb    -0.7445    53.869    19.222    17.969 -0.5536  0.8296  0.0728
              Bcc     1.8086  -130.867   -46.697   -43.653  0.8293  0.5572 -0.0432
 
              Baa    -0.5031  -268.428   -95.782   -89.538  0.3407  0.9267  0.1585
     8 H(1)   Bbb     0.2465   131.513    46.927    43.868  0.6168 -0.3475  0.7062
              Bcc     0.2566   136.915    48.855    45.670  0.7096 -0.1428 -0.6900
 
              Baa    -0.5097  -271.973   -97.047   -90.720 -0.1611  0.2514  0.9544
     9 H(1)   Bbb     0.2482   132.402    47.244    44.164  0.8470 -0.4612  0.2645
              Bcc     0.2616   139.571    49.802    46.556  0.5067  0.8509 -0.1386
 
              Baa    -0.4989  -266.202   -94.988   -88.796  0.2950  0.9466  0.1300
    10 H(1)   Bbb     0.2480   132.337    47.221    44.143  0.6784 -0.3033  0.6692
              Bcc     0.2509   133.865    47.766    44.653 -0.6729  0.1092  0.7317
 
              Baa    -0.5084  -271.275   -96.798   -90.487 -0.0964  0.2493  0.9636
    11 H(1)   Bbb     0.2430   129.672    46.270    43.254  0.9930  0.0898  0.0761
              Bcc     0.2654   141.602    50.527    47.233 -0.0676  0.9643 -0.2562
 
              Baa    -0.6435   -24.818    -8.856    -8.278 -0.6079 -0.4593  0.6477
    12 N(14)  Bbb    -0.2415    -9.312    -3.323    -3.106  0.4469  0.4764  0.7572
              Bcc     0.8849    34.130    12.178    11.385 -0.6563  0.7497 -0.0843
 
              Baa    -0.4019  -214.456   -76.523   -71.535 -0.0883 -0.1556  0.9839
    13 H(1)   Bbb     0.1581    84.328    30.090    28.129  0.7383  0.6528  0.1695
              Bcc     0.2439   130.128    46.433    43.406 -0.6686  0.7414  0.0573
 
              Baa    -0.3185   -42.739   -15.250   -14.256  0.9170  0.2276 -0.3277
    14 C(13)  Bbb     0.1448    19.434     6.934     6.482  0.2354  0.3543  0.9050
              Bcc     0.1737    23.305     8.316     7.774 -0.3221  0.9070 -0.2713
 
              Baa    -0.2927  -156.190   -55.733   -52.099 -0.3237  0.6310  0.7050
    15 H(1)   Bbb     0.1412    75.347    26.886    25.133  0.8944  0.4471  0.0106
              Bcc     0.1515    80.844    28.847    26.967  0.3085 -0.6340  0.7091
 
              Baa    -0.5059  -269.899   -96.307   -90.028  0.6462 -0.0275  0.7626
    16 H(1)   Bbb     0.2382   127.118    45.359    42.402  0.7276  0.3236 -0.6049
              Bcc     0.2676   142.780    50.948    47.626 -0.2301  0.9458  0.2291
 
              Baa    -0.5045  -269.176   -96.049   -89.787 -0.0065  0.9207 -0.3903
    17 H(1)   Bbb     0.2415   128.835    45.972    42.975  0.9907 -0.0470 -0.1275
              Bcc     0.2630   140.340    50.077    46.813  0.1357  0.3875  0.9118
 

 ---------------------------------------------------------------------------------

 No NMR shielding tensors so no spin-rotation constants.
 Leave Link  601 at Mon Jun 26 14:57:24 2006, MaxMem=    6291456 cpu:       1.0
 Merz-Kollman atomic radii used.
 Atom Element Radius
    1     6    1.50
    2     8    1.40
    3     8    1.40
    4     6    1.50
    5     6    1.50
    6     6    1.50
    7     8    1.40
    8     1    1.20
    9     1    1.20
   10     1    1.20
   11     1    1.20
   12     7    1.50
   13     1    1.20
   14     6    1.50
   15     1    1.20
   16     1    1.20
   17     1    1.20
 Generate VDW surfaces: Layer= 4 Dens= 1 Start= 1.400 Inc= 0.200

 **********************************************************************

            Electrostatic Properties Using The SCF Density

 **********************************************************************

       Atomic Center    1 is at  -2.423347  0.232706 -0.110245
       Atomic Center    2 is at  -2.961864  1.358190 -0.235698
       Atomic Center    3 is at  -3.075473 -0.983185  0.333347
       Atomic Center    4 is at  -0.910423  0.274682 -0.401071
       Atomic Center    5 is at  -0.048101 -0.678798  0.470184
       Atomic Center    6 is at   1.420347 -0.578590  0.139497
       Atomic Center    7 is at   1.894572 -1.327947 -0.727001
       Atomic Center    8 is at  -0.565285  1.199264 -0.241078
       Atomic Center    9 is at  -0.746551  0.018950 -1.353390
       Atomic Center   10 is at  -0.354666 -1.621479  0.337072
       Atomic Center   11 is at  -0.145822 -0.430636  1.433491
       Atomic Center   12 is at   1.991314  0.582458  0.467969
       Atomic Center   13 is at   1.874774  0.350570  1.444542
       Atomic Center   14 is at   3.328241  0.927196 -0.006844
       Atomic Center   15 is at   3.652101  0.220969 -0.771204
       Atomic Center   16 is at   3.971917  0.898169  0.758020
       Atomic Center   17 is at   3.316160  1.847344 -0.397549
      ESP Fit Center   18 is at  -2.423347  0.232706  1.989755
      ESP Fit Center   19 is at  -1.898347  1.142033  1.708408
      ESP Fit Center   20 is at  -4.168332 -0.279668 -1.160245
      ESP Fit Center   21 is at  -3.473347  0.232706 -1.928899
      ESP Fit Center   22 is at  -2.948347 -0.676621 -1.928899
      ESP Fit Center   23 is at  -2.423347  0.232706 -2.210245
      ESP Fit Center   24 is at  -2.961864  1.358190  1.724302
      ESP Fit Center   25 is at  -2.471864  2.206895  1.461712
      ESP Fit Center   26 is at  -3.451864  2.206895  1.461712
      ESP Fit Center   27 is at  -3.941864  1.358190  1.461712
      ESP Fit Center   28 is at  -1.588631  2.355903  0.744302
      ESP Fit Center   29 is at  -2.437335  2.972523  0.744302
      ESP Fit Center   30 is at  -3.486392  2.972523  0.744302
      ESP Fit Center   31 is at  -4.335097  2.355903  0.744302
      ESP Fit Center   32 is at  -4.659274  1.358190  0.744302
      ESP Fit Center   33 is at  -1.981864  3.055600 -0.235698
      ESP Fit Center   34 is at  -2.961864  3.318190 -0.235698
      ESP Fit Center   35 is at  -3.941864  3.055600 -0.235698
      ESP Fit Center   36 is at  -4.659274  2.338190 -0.235698
      ESP Fit Center   37 is at  -4.921864  1.358190 -0.235698
      ESP Fit Center   38 is at  -4.659274  0.378190 -0.235698
      ESP Fit Center   39 is at  -1.588631  2.355903 -1.215698
      ESP Fit Center   40 is at  -2.437335  2.972523 -1.215698
      ESP Fit Center   41 is at  -3.486392  2.972523 -1.215698
      ESP Fit Center   42 is at  -4.335097  2.355903 -1.215698
      ESP Fit Center   43 is at  -4.659274  1.358190 -1.215698
      ESP Fit Center   44 is at  -4.335097  0.360478 -1.215698
      ESP Fit Center   45 is at  -1.981864  1.358190 -1.933108
      ESP Fit Center   46 is at  -2.471864  2.206895 -1.933108
      ESP Fit Center   47 is at  -3.451864  2.206895 -1.933108
      ESP Fit Center   48 is at  -3.941864  1.358190 -1.933108
      ESP Fit Center   49 is at  -3.451864  0.509485 -1.933108
      ESP Fit Center   50 is at  -2.961864  1.358190 -2.195698
      ESP Fit Center   51 is at  -3.075473 -0.983185  2.293347
      ESP Fit Center   52 is at  -2.095473 -0.983185  2.030757
      ESP Fit Center   53 is at  -2.585473 -0.134480  2.030757
      ESP Fit Center   54 is at  -3.565473 -0.134480  2.030757
      ESP Fit Center   55 is at  -4.055473 -0.983185  2.030757
      ESP Fit Center   56 is at  -3.565473 -1.831890  2.030757
      ESP Fit Center   57 is at  -2.585473 -1.831890  2.030757
      ESP Fit Center   58 is at  -4.448707  0.014528  1.313347
      ESP Fit Center   59 is at  -4.772883 -0.983185  1.313347
      ESP Fit Center   60 is at  -4.448707 -1.980897  1.313347
      ESP Fit Center   61 is at  -3.600002 -2.597517  1.313347
      ESP Fit Center   62 is at  -2.550945 -2.597517  1.313347
      ESP Fit Center   63 is at  -1.702240 -1.980897  1.313347
      ESP Fit Center   64 is at  -4.772883 -0.003185  0.333347
      ESP Fit Center   65 is at  -5.035473 -0.983185  0.333347
      ESP Fit Center   66 is at  -4.772883 -1.963185  0.333347
      ESP Fit Center   67 is at  -4.055473 -2.680594  0.333347
      ESP Fit Center   68 is at  -3.075473 -2.943185  0.333347
      ESP Fit Center   69 is at  -2.095473 -2.680594  0.333347
      ESP Fit Center   70 is at  -4.448707  0.014528 -0.646653
      ESP Fit Center   71 is at  -4.772883 -0.983185 -0.646653
      ESP Fit Center   72 is at  -4.448707 -1.980897 -0.646653
      ESP Fit Center   73 is at  -3.600002 -2.597517 -0.646653
      ESP Fit Center   74 is at  -2.550945 -2.597517 -0.646653
      ESP Fit Center   75 is at  -1.702240 -1.980897 -0.646653
      ESP Fit Center   76 is at  -4.055473 -0.983185 -1.364063
      ESP Fit Center   77 is at  -3.565473 -1.831890 -1.364063
      ESP Fit Center   78 is at  -2.585473 -1.831890 -1.364063
      ESP Fit Center   79 is at   0.619525  1.257920 -1.451071
      ESP Fit Center   80 is at   0.707395 -2.333103  1.520184
      ESP Fit Center   81 is at   1.945347 -1.487917  1.958151
      ESP Fit Center   82 is at   1.161525 -2.378732  1.189497
      ESP Fit Center   83 is at   2.175843 -2.232896  1.189497
      ESP Fit Center   84 is at   2.950295 -1.561829  1.189497
      ESP Fit Center   85 is at   0.895347  0.330736 -1.679156
      ESP Fit Center   86 is at   3.591982 -1.327947  0.252999
      ESP Fit Center   87 is at   1.370044 -2.942280  0.252999
      ESP Fit Center   88 is at   2.419101 -2.942280  0.252999
      ESP Fit Center   89 is at   3.267806 -2.325660  0.252999
      ESP Fit Center   90 is at   0.914572 -3.025357 -0.727001
      ESP Fit Center   91 is at   1.894572 -3.287947 -0.727001
      ESP Fit Center   92 is at   2.874572 -3.025357 -0.727001
      ESP Fit Center   93 is at   3.591982 -2.307947 -0.727001
      ESP Fit Center   94 is at   3.591982 -1.327947 -1.707001
      ESP Fit Center   95 is at   0.197162 -1.327947 -1.707001
      ESP Fit Center   96 is at   0.521339 -2.325660 -1.707001
      ESP Fit Center   97 is at   1.370044 -2.942280 -1.707001
      ESP Fit Center   98 is at   2.419101 -2.942280 -1.707001
      ESP Fit Center   99 is at   3.267806 -2.325660 -1.707001
      ESP Fit Center  100 is at   2.874572 -1.327947 -2.424411
      ESP Fit Center  101 is at   2.384572 -0.479242 -2.424411
      ESP Fit Center  102 is at   1.404572 -0.479242 -2.424411
      ESP Fit Center  103 is at   0.914572 -1.327947 -2.424411
      ESP Fit Center  104 is at   1.404572 -2.176652 -2.424411
      ESP Fit Center  105 is at   2.384572 -2.176652 -2.424411
      ESP Fit Center  106 is at   1.894572 -1.327947 -2.687001
      ESP Fit Center  107 is at  -0.260138  2.138413  1.118070
      ESP Fit Center  108 is at  -1.364173  1.779690  1.118070
      ESP Fit Center  109 is at   0.658681  2.226294  0.278070
      ESP Fit Center  110 is at  -0.287835  2.772765  0.278070
      ESP Fit Center  111 is at  -1.364173  2.582978  0.278070
      ESP Fit Center  112 is at   0.658681  2.226294 -0.760227
      ESP Fit Center  113 is at  -0.287835  2.772765 -0.760227
      ESP Fit Center  114 is at  -1.364173  2.582978 -0.760227
      ESP Fit Center  115 is at  -0.260138  2.138413 -1.600227
      ESP Fit Center  116 is at   0.851224  0.018950 -1.872538
      ESP Fit Center  117 is at   0.477416  1.045980 -1.872538
      ESP Fit Center  118 is at  -1.545438 -1.364764 -1.872538
      ESP Fit Center  119 is at  -0.469100 -1.554551 -1.872538
      ESP Fit Center  120 is at   0.240928  0.018950 -2.712538
      ESP Fit Center  121 is at  -0.441403  0.958098 -2.712538
      ESP Fit Center  122 is at  -1.545438  0.599376 -2.712538
      ESP Fit Center  123 is at  -1.545438 -0.561476 -2.712538
      ESP Fit Center  124 is at  -0.441403 -0.920199 -2.712538
      ESP Fit Center  125 is at  -0.746551  0.018950 -3.033390
      ESP Fit Center  126 is at  -1.153553 -2.201905  1.696221
      ESP Fit Center  127 is at  -0.049518 -2.560627  1.696221
      ESP Fit Center  128 is at  -1.153553 -3.005193  0.856221
      ESP Fit Center  129 is at  -0.077215 -3.194980  0.856221
      ESP Fit Center  130 is at   0.869301 -2.648509  0.856221
      ESP Fit Center  131 is at  -1.153553 -3.005193 -0.182076
      ESP Fit Center  132 is at  -0.077215 -3.194980 -0.182076
      ESP Fit Center  133 is at  -1.153553 -2.201905 -1.022076
      ESP Fit Center  134 is at  -0.049518 -2.560627 -1.022076
      ESP Fit Center  135 is at  -0.145822 -0.430636  3.113491
      ESP Fit Center  136 is at   0.841657 -0.430636  2.792639
      ESP Fit Center  137 is at   0.159326  0.508512  2.792639
      ESP Fit Center  138 is at  -0.944710  0.149790  2.792639
      ESP Fit Center  139 is at  -0.944710 -1.011062  2.792639
      ESP Fit Center  140 is at   0.159326 -1.369785  2.792639
      ESP Fit Center  141 is at   0.131629  1.142865  1.952639
      ESP Fit Center  142 is at  -0.944710  0.953078  1.952639
      ESP Fit Center  143 is at  -1.647239  0.115835  1.952639
      ESP Fit Center  144 is at  -1.647239 -0.977107  1.952639
      ESP Fit Center  145 is at   1.732492  2.382600  1.517969
      ESP Fit Center  146 is at   0.800349  1.956905  1.517969
      ESP Fit Center  147 is at   1.246643  2.545992  0.467969
      ESP Fit Center  148 is at   1.732492  2.382600 -0.582031
      ESP Fit Center  149 is at   1.466314  1.491785 -1.350684
      ESP Fit Center  150 is at   1.991314  0.582458 -1.632031
      ESP Fit Center  151 is at   1.874774  0.350570  3.124542
      ESP Fit Center  152 is at   2.862253  0.350570  2.803691
      ESP Fit Center  153 is at   2.179922  1.289718  2.803691
      ESP Fit Center  154 is at   1.075887  0.930996  2.803691
      ESP Fit Center  155 is at   1.075887 -0.229856  2.803691
      ESP Fit Center  156 is at   2.179922 -0.588579  2.803691
      ESP Fit Center  157 is at   3.098741 -0.676460  1.963691
      ESP Fit Center  158 is at   4.083737  2.581501  1.043156
      ESP Fit Center  159 is at   3.069420  2.727338  1.043156
      ESP Fit Center  160 is at   5.187699  1.903115 -0.006844
      ESP Fit Center  161 is at   5.187699 -0.048723 -0.006844
      ESP Fit Center  162 is at   2.278241  0.927196 -1.825497
      ESP Fit Center  163 is at   3.929552 -1.352532 -0.252056
      ESP Fit Center  164 is at   4.876068 -0.806061 -0.252056
      ESP Fit Center  165 is at   5.249876  0.220969 -1.290353
      ESP Fit Center  166 is at   3.929552 -1.352532 -1.290353
      ESP Fit Center  167 is at   4.876068 -0.806061 -1.290353
      ESP Fit Center  168 is at   4.639581  0.220969 -2.130353
      ESP Fit Center  169 is at   3.957249  1.160118 -2.130353
      ESP Fit Center  170 is at   2.853214  0.801395 -2.130353
      ESP Fit Center  171 is at   3.957249 -0.718179 -2.130353
      ESP Fit Center  172 is at   3.652101  0.220969 -2.451204
      ESP Fit Center  173 is at   3.971917  0.898169  2.438020
      ESP Fit Center  174 is at   4.959396  0.898169  2.117169
      ESP Fit Center  175 is at   4.277065  1.837317  2.117169
      ESP Fit Center  176 is at   3.173029  1.478595  2.117169
      ESP Fit Center  177 is at   4.277065 -0.040980  2.117169
      ESP Fit Center  178 is at   5.569692  0.898169  1.277169
      ESP Fit Center  179 is at   5.195883  1.925199  1.277169
      ESP Fit Center  180 is at   4.249368  2.471670  1.277169
      ESP Fit Center  181 is at   4.249368 -0.675332  1.277169
      ESP Fit Center  182 is at   5.195883 -0.128861  1.277169
      ESP Fit Center  183 is at   5.569692  0.898169  0.238872
      ESP Fit Center  184 is at   5.195883  1.925199  0.238872
      ESP Fit Center  185 is at   5.195883 -0.128861  0.238872
      ESP Fit Center  186 is at   3.621308  2.786493  0.961600
      ESP Fit Center  187 is at   4.540126  2.874374  0.121600
      ESP Fit Center  188 is at   3.593610  3.420845  0.121600
      ESP Fit Center  189 is at   2.517272  3.231058  0.121600
      ESP Fit Center  190 is at   4.540126  2.874374 -0.916697
      ESP Fit Center  191 is at   3.593610  3.420845 -0.916697
      ESP Fit Center  192 is at   2.517272  3.231058 -0.916697
      ESP Fit Center  193 is at   1.814742  2.393815 -0.916697
      ESP Fit Center  194 is at   4.303639  1.847344 -1.756697
      ESP Fit Center  195 is at   3.621308  2.786493 -1.756697
      ESP Fit Center  196 is at   2.517272  2.427770 -1.756697
      ESP Fit Center  197 is at   3.316160  1.847344 -2.077549
      ESP Fit Center  198 is at  -2.423347  0.232706  2.289755
      ESP Fit Center  199 is at  -1.902687  1.134516  2.052080
      ESP Fit Center  200 is at  -2.944008  1.134516  2.052080
      ESP Fit Center  201 is at  -4.223736 -0.295936 -1.606621
      ESP Fit Center  202 is at  -3.464668  0.232706 -2.272571
      ESP Fit Center  203 is at  -2.944008 -0.669104 -2.272571
      ESP Fit Center  204 is at  -2.423347  0.232706 -2.510245
      ESP Fit Center  205 is at  -2.961864  1.358190  2.004302
      ESP Fit Center  206 is at  -2.475914  2.199880  1.782472
      ESP Fit Center  207 is at  -3.447814  2.199880  1.782472
      ESP Fit Center  208 is at  -3.933763  1.358190  1.782472
      ESP Fit Center  209 is at  -1.545030  2.387580  1.160919
      ESP Fit Center  210 is at  -2.420682  3.023778  1.160919
      ESP Fit Center  211 is at  -3.503046  3.023778  1.160919
      ESP Fit Center  212 is at  -4.378697  2.387580  1.160919
      ESP Fit Center  213 is at  -4.713166  1.358190  1.160919
      ESP Fit Center  214 is at  -1.721302  3.155454  0.262749
      ESP Fit Center  215 is at  -2.698631  3.526106  0.262749
      ESP Fit Center  216 is at  -3.736264  3.400115  0.262749
      ESP Fit Center  217 is at  -4.596491  2.806343  0.262749
      ESP Fit Center  218 is at  -5.082244  1.880817  0.262749
      ESP Fit Center  219 is at  -5.082244  0.835563  0.262749
      ESP Fit Center  220 is at  -1.721302  3.155454 -0.734145
      ESP Fit Center  221 is at  -2.698631  3.526106 -0.734145
      ESP Fit Center  222 is at  -3.736264  3.400115 -0.734145
      ESP Fit Center  223 is at  -4.596491  2.806343 -0.734145
      ESP Fit Center  224 is at  -5.082244  1.880817 -0.734145
      ESP Fit Center  225 is at  -5.082244  0.835563 -0.734145
      ESP Fit Center  226 is at  -1.545030  2.387580 -1.632315
      ESP Fit Center  227 is at  -2.420682  3.023778 -1.632315
      ESP Fit Center  228 is at  -3.503046  3.023778 -1.632315
      ESP Fit Center  229 is at  -4.378697  2.387580 -1.632315
      ESP Fit Center  230 is at  -4.713166  1.358190 -1.632315
      ESP Fit Center  231 is at  -4.378697  0.328800 -1.632315
      ESP Fit Center  232 is at  -1.989964  1.358190 -2.253868
      ESP Fit Center  233 is at  -2.475914  2.199880 -2.253868
      ESP Fit Center  234 is at  -3.447814  2.199880 -2.253868
      ESP Fit Center  235 is at  -3.933763  1.358190 -2.253868
      ESP Fit Center  236 is at  -2.961864  1.358190 -2.475698
      ESP Fit Center  237 is at  -3.075473 -0.983185  2.573347
      ESP Fit Center  238 is at  -2.103574 -0.983185  2.351518
      ESP Fit Center  239 is at  -2.589524 -0.141495  2.351518
      ESP Fit Center  240 is at  -3.561423 -0.141495  2.351518
      ESP Fit Center  241 is at  -4.047373 -0.983185  2.351518
      ESP Fit Center  242 is at  -3.561423 -1.824874  2.351518
      ESP Fit Center  243 is at  -2.589524 -1.824874  2.351518
      ESP Fit Center  244 is at  -4.492307  0.046205  1.729964
      ESP Fit Center  245 is at  -4.826776 -0.983185  1.729964
      ESP Fit Center  246 is at  -4.492307 -2.012574  1.729964
      ESP Fit Center  247 is at  -3.616656 -2.648772  1.729964
      ESP Fit Center  248 is at  -2.534291 -2.648772  1.729964
      ESP Fit Center  249 is at  -1.658640 -2.012574  1.729964
      ESP Fit Center  250 is at  -5.195854 -0.460558  0.831794
      ESP Fit Center  251 is at  -5.195854 -1.505811  0.831794
      ESP Fit Center  252 is at  -4.710100 -2.431337  0.831794
      ESP Fit Center  253 is at  -3.849873 -3.025109  0.831794
      ESP Fit Center  254 is at  -2.812241 -3.151101  0.831794
      ESP Fit Center  255 is at  -1.834912 -2.780449  0.831794
      ESP Fit Center  256 is at  -5.195854 -0.460558 -0.165100
      ESP Fit Center  257 is at  -5.195854 -1.505811 -0.165100
      ESP Fit Center  258 is at  -4.710100 -2.431337 -0.165100
      ESP Fit Center  259 is at  -3.849873 -3.025109 -0.165100
      ESP Fit Center  260 is at  -2.812241 -3.151101 -0.165100
      ESP Fit Center  261 is at  -1.834912 -2.780449 -0.165100
      ESP Fit Center  262 is at  -4.826776 -0.983185 -1.063270
      ESP Fit Center  263 is at  -4.492307 -2.012574 -1.063270
      ESP Fit Center  264 is at  -3.616656 -2.648772 -1.063270
      ESP Fit Center  265 is at  -2.534291 -2.648772 -1.063270
      ESP Fit Center  266 is at  -1.658640 -2.012574 -1.063270
      ESP Fit Center  267 is at  -4.047373 -0.983185 -1.684823
      ESP Fit Center  268 is at  -3.561423 -1.824874 -1.684823
      ESP Fit Center  269 is at  -2.589524 -1.824874 -1.684823
      ESP Fit Center  270 is at   0.668101  1.289138 -1.897447
      ESP Fit Center  271 is at  -1.177462  2.131978 -1.897447
      ESP Fit Center  272 is at  -1.276878 -2.096883  1.966560
      ESP Fit Center  273 is at   0.731382 -2.385627  1.966560
      ESP Fit Center  274 is at   1.941007 -1.480401  2.301823
      ESP Fit Center  275 is at   1.153308 -2.435887  1.635873
      ESP Fit Center  276 is at   2.199830 -2.285420  1.635873
      ESP Fit Center  277 is at   2.998871 -1.593046  1.635873
      ESP Fit Center  278 is at   1.353390 -2.993535  0.669616
      ESP Fit Center  279 is at   2.435754 -2.993535  0.669616
      ESP Fit Center  280 is at   3.311406 -2.357337  0.669616
      ESP Fit Center  281 is at   1.120172 -3.369872 -0.228554
      ESP Fit Center  282 is at   2.157805 -3.495863 -0.228554
      ESP Fit Center  283 is at   3.135134 -3.125211 -0.228554
      ESP Fit Center  284 is at   3.828265 -2.342828 -0.228554
      ESP Fit Center  285 is at   0.259946 -2.776100 -1.225448
      ESP Fit Center  286 is at   1.120172 -3.369872 -1.225448
      ESP Fit Center  287 is at   2.157805 -3.495863 -1.225448
      ESP Fit Center  288 is at   3.135134 -3.125211 -1.225448
      ESP Fit Center  289 is at   3.828265 -2.342828 -1.225448
      ESP Fit Center  290 is at   3.645875 -1.327947 -2.123618
      ESP Fit Center  291 is at   1.353390  0.337640 -2.123618
      ESP Fit Center  292 is at   0.477739 -2.357337 -2.123618
      ESP Fit Center  293 is at   1.353390 -2.993535 -2.123618
      ESP Fit Center  294 is at   2.435754 -2.993535 -2.123618
      ESP Fit Center  295 is at   3.311406 -2.357337 -2.123618
      ESP Fit Center  296 is at   2.866472 -1.327947 -2.745171
      ESP Fit Center  297 is at   2.380522 -0.486258 -2.745171
      ESP Fit Center  298 is at   1.408622 -0.486258 -2.745171
      ESP Fit Center  299 is at   0.922673 -1.327947 -2.745171
      ESP Fit Center  300 is at   1.408622 -2.169637 -2.745171
      ESP Fit Center  301 is at   2.380522 -2.169637 -2.745171
      ESP Fit Center  302 is at   1.894572 -1.327947 -2.967001
      ESP Fit Center  303 is at  -0.085285  2.030649  1.421691
      ESP Fit Center  304 is at  -1.045285  2.030649  1.421691
      ESP Fit Center  305 is at  -0.051462  2.780651  0.718922
      ESP Fit Center  306 is at  -1.079109  2.780651  0.718922
      ESP Fit Center  307 is at   0.394715  2.862033 -0.241078
      ESP Fit Center  308 is at  -0.565285  3.119264 -0.241078
      ESP Fit Center  309 is at   0.779923  2.176615 -1.201078
      ESP Fit Center  310 is at  -0.051462  2.780651 -1.201078
      ESP Fit Center  311 is at  -1.079109  2.780651 -1.201078
      ESP Fit Center  312 is at  -0.085285  2.030649 -1.903847
      ESP Fit Center  313 is at   0.916218  0.018950 -2.313390
      ESP Fit Center  314 is at   0.598657  0.996301 -2.313390
      ESP Fit Center  315 is at  -0.232727  1.600337 -2.313390
      ESP Fit Center  316 is at  -2.091759 -0.958401 -2.313390
      ESP Fit Center  317 is at  -1.260375 -1.562437 -2.313390
      ESP Fit Center  318 is at  -0.232727 -1.562437 -2.313390
      ESP Fit Center  319 is at   0.213449  0.018950 -3.016158
      ESP Fit Center  320 is at  -0.266551  0.850334 -3.016158
      ESP Fit Center  321 is at  -1.226551  0.850334 -3.016158
      ESP Fit Center  322 is at  -1.706551  0.018950 -3.016158
      ESP Fit Center  323 is at  -1.226551 -0.812435 -3.016158
      ESP Fit Center  324 is at  -0.266551 -0.812435 -3.016158
      ESP Fit Center  325 is at  -0.746551  0.018950 -3.273390
      ESP Fit Center  326 is at  -0.834666 -2.452863  1.999841
      ESP Fit Center  327 is at  -1.699874 -2.598830  1.297072
      ESP Fit Center  328 is at  -0.868490 -3.202866  1.297072
      ESP Fit Center  329 is at   0.159158 -3.202866  1.297072
      ESP Fit Center  330 is at  -1.314666 -3.284248  0.337072
      ESP Fit Center  331 is at  -0.354666 -3.541479  0.337072
      ESP Fit Center  332 is at   0.605334 -3.284248  0.337072
      ESP Fit Center  333 is at  -1.699874 -2.598830 -0.622928
      ESP Fit Center  334 is at  -0.868490 -3.202866 -0.622928
      ESP Fit Center  335 is at   0.159158 -3.202866 -0.622928
      ESP Fit Center  336 is at  -0.834666 -2.452863 -1.325697
      ESP Fit Center  337 is at  -0.145822 -0.430636  3.353491
      ESP Fit Center  338 is at   0.814178 -0.430636  3.096259
      ESP Fit Center  339 is at   0.334178  0.400748  3.096259
      ESP Fit Center  340 is at  -0.625822  0.400748  3.096259
      ESP Fit Center  341 is at  -1.105822 -0.430636  3.096259
      ESP Fit Center  342 is at  -0.625822 -1.262020  3.096259
      ESP Fit Center  343 is at   0.334178 -1.262020  3.096259
      ESP Fit Center  344 is at   0.368002  1.150751  2.393491
      ESP Fit Center  345 is at  -0.659646  1.150751  2.393491
      ESP Fit Center  346 is at  -1.491030  0.546715  2.393491
      ESP Fit Center  347 is at  -1.808591 -0.430636  2.393491
      ESP Fit Center  348 is at  -1.491030 -1.407987  2.393491
      ESP Fit Center  349 is at  -0.659646 -2.012023  2.393491
      ESP Fit Center  350 is at   1.199386 -1.407987  2.393491
      ESP Fit Center  351 is at   2.770796  2.289288  1.964345
      ESP Fit Center  352 is at   1.724275  2.439755  1.964345
      ESP Fit Center  353 is at   0.762536  2.000543  1.964345
      ESP Fit Center  354 is at   1.470653  2.863621  1.002019
      ESP Fit Center  355 is at   0.532455  2.411809  1.002019
      ESP Fit Center  356 is at   1.470653  2.863621 -0.066081
      ESP Fit Center  357 is at   1.470653  1.484269 -1.694356
      ESP Fit Center  358 is at   1.874774  0.350570  3.364542
      ESP Fit Center  359 is at   2.834774  0.350570  3.107311
      ESP Fit Center  360 is at   2.354774  1.181954  3.107311
      ESP Fit Center  361 is at   1.394774  1.181954  3.107311
      ESP Fit Center  362 is at   0.914774  0.350570  3.107311
      ESP Fit Center  363 is at   1.394774 -0.480814  3.107311
      ESP Fit Center  364 is at   2.354774 -0.480814  3.107311
      ESP Fit Center  365 is at   1.360950  1.931957  2.404542
      ESP Fit Center  366 is at   0.529566  1.327921  2.404542
      ESP Fit Center  367 is at   2.388598 -1.230817  2.404542
      ESP Fit Center  368 is at   3.219982 -0.626781  2.404542
      ESP Fit Center  369 is at   3.061202  2.784493  1.489532
      ESP Fit Center  370 is at   4.787099  2.756546  0.527207
      ESP Fit Center  371 is at   3.848901 -1.353967  0.527207
      ESP Fit Center  372 is at   4.787099 -0.902154  0.527207
      ESP Fit Center  373 is at   5.668068  0.927196 -0.540894
      ESP Fit Center  374 is at   5.436352  1.942409 -0.540894
      ESP Fit Center  375 is at   4.906765  1.941652 -1.503219
      ESP Fit Center  376 is at   2.286920  0.927196 -2.169169
      ESP Fit Center  377 is at   4.165925 -1.360418  0.188796
      ESP Fit Center  378 is at   5.572101  0.220969 -0.771204
      ESP Fit Center  379 is at   4.612101 -1.441799 -0.771204
      ESP Fit Center  380 is at   5.314870 -0.739031 -0.771204
      ESP Fit Center  381 is at   5.314870  0.220969 -1.731204
      ESP Fit Center  382 is at   4.997310  1.198320 -1.731204
      ESP Fit Center  383 is at   4.165925 -1.360418 -1.731204
      ESP Fit Center  384 is at   4.997310 -0.756382 -1.731204
      ESP Fit Center  385 is at   4.612101  0.220969 -2.433973
      ESP Fit Center  386 is at   4.132101  1.052354 -2.433973
      ESP Fit Center  387 is at   3.172101  1.052354 -2.433973
      ESP Fit Center  388 is at   2.692101  0.220969 -2.433973
      ESP Fit Center  389 is at   3.172101 -0.610415 -2.433973
      ESP Fit Center  390 is at   4.132101 -0.610415 -2.433973
      ESP Fit Center  391 is at   3.652101  0.220969 -2.691204
      ESP Fit Center  392 is at   3.971917  0.898169  2.678020
      ESP Fit Center  393 is at   4.931917  0.898169  2.420789
      ESP Fit Center  394 is at   4.451917  1.729553  2.420789
      ESP Fit Center  395 is at   3.491917  1.729553  2.420789
      ESP Fit Center  396 is at   4.451917  0.066785  2.420789
      ESP Fit Center  397 is at   5.634686  0.898169  1.718020
      ESP Fit Center  398 is at   5.317125  1.875520  1.718020
      ESP Fit Center  399 is at   4.485741  2.479556  1.718020
      ESP Fit Center  400 is at   4.485741 -0.683218  1.718020
      ESP Fit Center  401 is at   5.317125 -0.079182  1.718020
      ESP Fit Center  402 is at   5.891917  0.898169  0.758020
      ESP Fit Center  403 is at   5.634686  1.858169  0.758020
      ESP Fit Center  404 is at   4.931917  2.560938  0.758020
      ESP Fit Center  405 is at   4.931917 -0.764600  0.758020
      ESP Fit Center  406 is at   5.634686 -0.061831  0.758020
      ESP Fit Center  407 is at   3.829984  3.428731  0.562451
      ESP Fit Center  408 is at   2.802336  3.428731  0.562451
      ESP Fit Center  409 is at   4.978929  2.807344 -0.397549
      ESP Fit Center  410 is at   4.276160  3.510113 -0.397549
      ESP Fit Center  411 is at   3.316160  3.767344 -0.397549
      ESP Fit Center  412 is at   2.356160  3.510113 -0.397549
      ESP Fit Center  413 is at   1.653391  2.807344 -0.397549
      ESP Fit Center  414 is at   4.661368  2.824695 -1.357549
      ESP Fit Center  415 is at   3.829984  3.428731 -1.357549
      ESP Fit Center  416 is at   2.802336  3.428731 -1.357549
      ESP Fit Center  417 is at   1.970952  2.824695 -1.357549
      ESP Fit Center  418 is at   4.276160  1.847344 -2.060318
      ESP Fit Center  419 is at   3.796160  2.678729 -2.060318
      ESP Fit Center  420 is at   2.836160  2.678729 -2.060318
      ESP Fit Center  421 is at   2.356160  1.847344 -2.060318
      ESP Fit Center  422 is at   3.316160  1.847344 -2.317549
      ESP Fit Center  423 is at  -2.423347  0.232706  2.589755
      ESP Fit Center  424 is at  -1.906725  1.127523  2.384229
      ESP Fit Center  425 is at  -2.939970  1.127523  2.384229
      ESP Fit Center  426 is at  -4.255200 -0.305174 -2.019434
      ESP Fit Center  427 is at  -3.456593  0.232706 -2.604720
      ESP Fit Center  428 is at  -2.939970 -0.662111 -2.604720
      ESP Fit Center  429 is at  -2.423347  0.232706 -2.810245
      ESP Fit Center  430 is at  -2.961864  1.358190  2.284302
      ESP Fit Center  431 is at  -2.415170  2.305091  2.034743
      ESP Fit Center  432 is at  -3.508557  2.305091  2.034743
      ESP Fit Center  433 is at  -4.055251  1.358190  2.034743
      ESP Fit Center  434 is at  -2.143407  3.150361  1.335496
      ESP Fit Center  435 is at  -3.242255  3.308352  1.335496
      ESP Fit Center  436 is at  -4.252081  2.847180  1.335496
      ESP Fit Center  437 is at  -4.852272  1.913264  1.335496
      ESP Fit Center  438 is at  -4.852272  0.803116  1.335496
      ESP Fit Center  439 is at  -1.430063  3.279008  0.325055
      ESP Fit Center  440 is at  -2.415170  3.753411  0.325055
      ESP Fit Center  441 is at  -3.508557  3.753411  0.325055
      ESP Fit Center  442 is at  -4.493665  3.279008  0.325055
      ESP Fit Center  443 is at  -5.175381  2.424164  0.325055
      ESP Fit Center  444 is at  -5.418682  1.358190  0.325055
      ESP Fit Center  445 is at  -1.430063  3.279008 -0.796451
      ESP Fit Center  446 is at  -2.415170  3.753411 -0.796451
      ESP Fit Center  447 is at  -3.508557  3.753411 -0.796451
      ESP Fit Center  448 is at  -4.493665  3.279008 -0.796451
      ESP Fit Center  449 is at  -5.175381  2.424164 -0.796451
      ESP Fit Center  450 is at  -5.418682  1.358190 -0.796451
      ESP Fit Center  451 is at  -5.175381  0.292217 -0.796451
      ESP Fit Center  452 is at  -2.143407  3.150361 -1.806892
      ESP Fit Center  453 is at  -3.242255  3.308352 -1.806892
      ESP Fit Center  454 is at  -4.252081  2.847180 -1.806892
      ESP Fit Center  455 is at  -4.852272  1.913264 -1.806892
      ESP Fit Center  456 is at  -4.852272  0.803116 -1.806892
      ESP Fit Center  457 is at  -2.415170  2.305091 -2.506140
      ESP Fit Center  458 is at  -3.508557  2.305091 -2.506140
      ESP Fit Center  459 is at  -4.055251  1.358190 -2.506140
      ESP Fit Center  460 is at  -2.961864  1.358190 -2.755698
      ESP Fit Center  461 is at  -3.075473 -0.983185  2.853347
      ESP Fit Center  462 is at  -1.982086 -0.983185  2.603789
      ESP Fit Center  463 is at  -2.528780 -0.036284  2.603789
      ESP Fit Center  464 is at  -3.622167 -0.036284  2.603789
      ESP Fit Center  465 is at  -4.168860 -0.983185  2.603789
      ESP Fit Center  466 is at  -3.622167 -1.930086  2.603789
      ESP Fit Center  467 is at  -2.528780 -1.930086  2.603789
      ESP Fit Center  468 is at  -4.365690  0.505805  1.904542
      ESP Fit Center  469 is at  -4.965881 -0.428111  1.904542
      ESP Fit Center  470 is at  -4.965881 -1.538258  1.904542
      ESP Fit Center  471 is at  -4.365690 -2.472174  1.904542
      ESP Fit Center  472 is at  -3.355864 -2.933346  1.904542
      ESP Fit Center  473 is at  -2.257016 -2.775356  1.904542
      ESP Fit Center  474 is at  -5.288990  0.082789  0.894100
      ESP Fit Center  475 is at  -5.532292 -0.983185  0.894100
      ESP Fit Center  476 is at  -5.288990 -2.049158  0.894100
      ESP Fit Center  477 is at  -4.607275 -2.904003  0.894100
      ESP Fit Center  478 is at  -3.622167 -3.378405  0.894100
      ESP Fit Center  479 is at  -2.528780 -3.378405  0.894100
      ESP Fit Center  480 is at  -5.288990  0.082789 -0.227406
      ESP Fit Center  481 is at  -5.532292 -0.983185 -0.227406
      ESP Fit Center  482 is at  -5.288990 -2.049158 -0.227406
      ESP Fit Center  483 is at  -4.607275 -2.904003 -0.227406
      ESP Fit Center  484 is at  -3.622167 -3.378405 -0.227406
      ESP Fit Center  485 is at  -2.528780 -3.378405 -0.227406
      ESP Fit Center  486 is at  -4.965881 -0.428111 -1.237847
      ESP Fit Center  487 is at  -4.965881 -1.538258 -1.237847
      ESP Fit Center  488 is at  -4.365690 -2.472174 -1.237847
      ESP Fit Center  489 is at  -3.355864 -2.933346 -1.237847
      ESP Fit Center  490 is at  -2.257016 -2.775356 -1.237847
      ESP Fit Center  491 is at  -4.168860 -0.983185 -1.937094
      ESP Fit Center  492 is at  -3.622167 -1.930086 -1.937094
      ESP Fit Center  493 is at  -2.528780 -1.930086 -1.937094
      ESP Fit Center  494 is at  -0.117318  2.011340 -2.310260
      ESP Fit Center  495 is at  -1.182129  2.164437 -2.310260
      ESP Fit Center  496 is at  -1.298353 -2.121666  2.379373
      ESP Fit Center  497 is at  -0.319807 -2.568553  2.379373
      ESP Fit Center  498 is at   0.745005 -2.415456  2.379373
      ESP Fit Center  499 is at   1.936969 -1.473407  2.633972
      ESP Fit Center  500 is at   2.213452 -2.315249  2.048686
      ESP Fit Center  501 is at   3.026458 -1.610775  2.048686
      ESP Fit Center  502 is at   1.975420 -3.010523  1.172743
      ESP Fit Center  503 is at   3.667791 -1.660902  1.172743
      ESP Fit Center  504 is at   1.614181 -3.278109  0.844193
      ESP Fit Center  505 is at   2.713029 -3.120118  0.844193
      ESP Fit Center  506 is at   3.552023 -2.393126  0.844193
      ESP Fit Center  507 is at   1.347879 -3.723168 -0.166248
      ESP Fit Center  508 is at   2.441266 -3.723168 -0.166248
      ESP Fit Center  509 is at   3.426373 -3.248765 -0.166248
      ESP Fit Center  510 is at   4.108089 -2.393921 -0.166248
      ESP Fit Center  511 is at   0.362771 -3.248765 -1.287754
      ESP Fit Center  512 is at   1.347879 -3.723168 -1.287754
      ESP Fit Center  513 is at   2.441266 -3.723168 -1.287754
      ESP Fit Center  514 is at   3.426373 -3.248765 -1.287754
      ESP Fit Center  515 is at   4.108089 -2.393921 -1.287754
      ESP Fit Center  516 is at   3.864788 -1.327947 -2.298195
      ESP Fit Center  517 is at   1.614181  0.622214 -2.298195
      ESP Fit Center  518 is at   0.004164 -1.883021 -2.298195
      ESP Fit Center  519 is at   0.604356 -2.816937 -2.298195
      ESP Fit Center  520 is at   1.614181 -3.278109 -2.298195
      ESP Fit Center  521 is at   2.713029 -3.120118 -2.298195
      ESP Fit Center  522 is at   3.552023 -2.393126 -2.298195
      ESP Fit Center  523 is at   2.987959 -1.327947 -2.997443
      ESP Fit Center  524 is at   2.441266 -0.381046 -2.997443
      ESP Fit Center  525 is at   1.347879 -0.381046 -2.997443
      ESP Fit Center  526 is at   0.801185 -1.327947 -2.997443
      ESP Fit Center  527 is at   1.347879 -2.274848 -2.997443
      ESP Fit Center  528 is at   2.441266 -2.274848 -2.997443
      ESP Fit Center  529 is at   1.894572 -1.327947 -3.247001
      ESP Fit Center  530 is at  -0.025285  2.134572  1.629537
      ESP Fit Center  531 is at  -1.105285  2.134572  1.629537
      ESP Fit Center  532 is at   0.211796  2.900835  0.838922
      ESP Fit Center  533 is at  -0.831502  3.050839  0.838922
      ESP Fit Center  534 is at   0.661734  2.976909 -0.241078
      ESP Fit Center  535 is at  -0.304926  3.343515 -0.241078
      ESP Fit Center  536 is at   0.211796  2.900835 -1.321078
      ESP Fit Center  537 is at  -0.831502  3.050839 -1.321078
      ESP Fit Center  538 is at   0.827110  1.030281 -2.433390
      ESP Fit Center  539 is at  -1.971543 -1.394767 -2.433390
      ESP Fit Center  540 is at  -1.012767 -1.832625 -2.433390
      ESP Fit Center  541 is at   0.030531 -1.682621 -2.433390
      ESP Fit Center  542 is at   0.333449  0.018950 -3.224005
      ESP Fit Center  543 is at  -0.206551  0.954257 -3.224005
      ESP Fit Center  544 is at  -1.286551  0.954257 -3.224005
      ESP Fit Center  545 is at  -1.826551  0.018950 -3.224005
      ESP Fit Center  546 is at  -1.286551 -0.916358 -3.224005
      ESP Fit Center  547 is at  -0.206551 -0.916358 -3.224005
      ESP Fit Center  548 is at  -0.746551  0.018950 -3.513390
      ESP Fit Center  549 is at  -1.579658 -3.035195  1.417072
      ESP Fit Center  550 is at  -0.620882 -3.473054  1.417072
      ESP Fit Center  551 is at   0.422416 -3.323050  1.417072
      ESP Fit Center  552 is at  -1.120613 -3.641114  0.337072
      ESP Fit Center  553 is at  -0.094307 -3.765730  0.337072
      ESP Fit Center  554 is at   0.872354 -3.399124  0.337072
      ESP Fit Center  555 is at  -1.579658 -3.035195 -0.742928
      ESP Fit Center  556 is at  -0.620882 -3.473054 -0.742928
      ESP Fit Center  557 is at  -0.894666 -2.556786 -1.533543
      ESP Fit Center  558 is at  -0.145822 -0.430636  3.593491
      ESP Fit Center  559 is at   0.934178 -0.430636  3.304106
      ESP Fit Center  560 is at   0.394178  0.504671  3.304106
      ESP Fit Center  561 is at  -0.685822  0.504671  3.304106
      ESP Fit Center  562 is at  -1.225822 -0.430636  3.304106
      ESP Fit Center  563 is at  -0.685822 -1.365944  3.304106
      ESP Fit Center  564 is at   0.394178 -1.365944  3.304106
      ESP Fit Center  565 is at  -0.412038  1.420939  2.513491
      ESP Fit Center  566 is at  -1.370814  0.983080  2.513491
      ESP Fit Center  567 is at   2.784419  2.319117  2.377157
      ESP Fit Center  568 is at   1.719608  2.472214  2.377157
      ESP Fit Center  569 is at   0.741061  2.025327  2.377157
      ESP Fit Center  570 is at   1.436241  3.014391  1.501214
      ESP Fit Center  571 is at   0.436034  2.532717  1.501214
      ESP Fit Center  572 is at   0.958068  3.076933  0.467969
      ESP Fit Center  573 is at   1.436241  3.014391 -0.565276
      ESP Fit Center  574 is at   1.474691  1.477275 -2.026506
      ESP Fit Center  575 is at   1.874774  0.350570  3.604542
      ESP Fit Center  576 is at   2.954774  0.350570  3.315157
      ESP Fit Center  577 is at   2.414774  1.285877  3.315157
      ESP Fit Center  578 is at   1.334774  1.285877  3.315157
      ESP Fit Center  579 is at   0.794774  0.350570  3.315157
      ESP Fit Center  580 is at   1.334774 -0.584738  3.315157
      ESP Fit Center  581 is at   2.414774 -0.584738  3.315157
      ESP Fit Center  582 is at   0.649782  1.764286  2.524542
      ESP Fit Center  583 is at   2.651856 -1.351001  2.524542
      ESP Fit Center  584 is at   3.448435 -0.660761  2.524542
      ESP Fit Center  585 is at   3.056535  2.816952  1.902345
      ESP Fit Center  586 is at   4.883520  2.877455  1.026402
      ESP Fit Center  587 is at   3.883314 -1.504737  1.026402
      ESP Fit Center  588 is at   6.028241  0.927196 -0.006844
      ESP Fit Center  589 is at   5.822716  1.960441 -0.006844
      ESP Fit Center  590 is at   5.237429  2.836384 -0.006844
      ESP Fit Center  591 is at   5.822716 -0.106049 -0.006844
      ESP Fit Center  592 is at   5.822716  0.927196 -1.040089
      ESP Fit Center  593 is at   5.575685  2.009508 -1.040089
      ESP Fit Center  594 is at   4.934352  1.959381 -1.916032
      ESP Fit Center  595 is at   3.844864  1.822013 -2.501318
      ESP Fit Center  596 is at   2.811618  1.822013 -2.501318
      ESP Fit Center  597 is at   2.294996  0.927196 -2.501318
      ESP Fit Center  598 is at   4.879121 -1.556676 -0.771204
      ESP Fit Center  599 is at   5.564686 -0.782833 -0.771204
      ESP Fit Center  600 is at   5.522716  0.220969 -1.851204
      ESP Fit Center  601 is at   4.429183 -1.480602 -1.851204
      ESP Fit Center  602 is at   5.225763 -0.790361 -1.851204
      ESP Fit Center  603 is at   4.732101  0.220969 -2.641819
      ESP Fit Center  604 is at   4.192101  1.156277 -2.641819
      ESP Fit Center  605 is at   2.572101  0.220969 -2.641819
      ESP Fit Center  606 is at   4.192101 -0.714338 -2.641819
      ESP Fit Center  607 is at   3.652101  0.220969 -2.931204
      ESP Fit Center  608 is at   3.971917  0.898169  2.918020
      ESP Fit Center  609 is at   5.051917  0.898169  2.628635
      ESP Fit Center  610 is at   4.511917  1.833476  2.628635
      ESP Fit Center  611 is at   3.431917  1.833476  2.628635
      ESP Fit Center  612 is at   4.511917 -0.037139  2.628635
      ESP Fit Center  613 is at   5.842532  0.898169  1.838020
      ESP Fit Center  614 is at   5.545578  1.909500  1.838020
      ESP Fit Center  615 is at   4.748998  2.599740  1.838020
      ESP Fit Center  616 is at   4.748998 -0.803402  1.838020
      ESP Fit Center  617 is at   5.545578 -0.113162  1.838020
      ESP Fit Center  618 is at   6.131917  0.898169  0.758020
      ESP Fit Center  619 is at   5.884502  1.901971  0.758020
      ESP Fit Center  620 is at   5.198937 -0.879476  0.758020
      ESP Fit Center  621 is at   5.884502 -0.105633  0.758020
      ESP Fit Center  622 is at   4.093241  3.548915  0.682451
      ESP Fit Center  623 is at   3.049943  3.698919  0.682451
      ESP Fit Center  624 is at   5.228745  2.851146 -0.397549
      ESP Fit Center  625 is at   4.543180  3.624989 -0.397549
      ESP Fit Center  626 is at   3.576519  3.991595 -0.397549
      ESP Fit Center  627 is at   2.550213  3.866979 -0.397549
      ESP Fit Center  628 is at   1.699377  3.279689 -0.397549
      ESP Fit Center  629 is at   4.889821  2.858675 -1.477549
      ESP Fit Center  630 is at   4.093241  3.548915 -1.477549
      ESP Fit Center  631 is at   3.049943  3.698919 -1.477549
[...]
  136 Fit      -0.118716
  137 Fit      -0.105515
  138 Fit      -0.106474
  139 Fit      -0.114543
  140 Fit      -0.132538
  141 Fit      -0.134951
  142 Fit      -0.115630
  143 Fit      -0.138587
  144 Fit      -0.128332
  145 Fit      -0.127441
  146 Fit      -0.142998
  147 Fit      -0.121367
  148 Fit      -0.139747
  149 Fit      -0.127030
  150 Fit      -0.156599
  151 Fit      -0.160592
  152 Fit      -0.142944
  153 Fit      -0.133307
  154 Fit      -0.137475
  155 Fit      -0.118908
  156 Fit      -0.098957
  157 Fit      -0.110431
  158 Fit      -0.082824
  159 Fit      -0.083640
  160 Fit      -0.113750
  161 Fit      -0.102099
  162 Fit      -0.121065
  163 Fit      -0.098281
  164 Fit      -0.087487
  165 Fit      -0.099518
  166 Fit      -0.125718
  167 Fit      -0.093653
  168 Fit      -0.082378
  169 Fit      -0.084245
  170 Fit      -0.142851
  171 Fit      -0.099297
  172 Fit      -0.084891
  173 Fit      -0.114560
  174 Fit      -0.090611
  175 Fit      -0.094448
  176 Fit      -0.084806
  177 Fit      -0.080005
  178 Fit      -0.085148
  179 Fit      -0.103054
  180 Fit      -0.118711
  181 Fit      -0.078906
  182 Fit      -0.083972
  183 Fit      -0.100618
  184 Fit      -0.086134
  185 Fit      -0.090809
  186 Fit      -0.132769
  187 Fit      -0.101379
  188 Fit      -0.086584
  189 Fit      -0.084628
  190 Fit      -0.104450
  191 Fit      -0.109300
  192 Fit      -0.096589
  193 Fit      -0.084872
  194 Fit      -0.091240
  195 Fit      -0.092247
  196 Fit      -0.170440
  197 Fit      -0.147753
  198 Fit      -0.157303
  199 Fit      -0.136511
  200 Fit      -0.198037
  201 Fit      -0.151898
  202 Fit      -0.171278
  203 Fit      -0.154566
  204 Fit      -0.178974
  205 Fit      -0.175791
  206 Fit      -0.168616
  207 Fit      -0.158894
  208 Fit      -0.204821
  209 Fit      -0.185781
  210 Fit      -0.173351
  211 Fit      -0.169612
  212 Fit      -0.165489
  213 Fit      -0.200978
  214 Fit      -0.187825
  215 Fit      -0.179304
  216 Fit      -0.171421
  217 Fit      -0.169558
  218 Fit      -0.167812
  219 Fit      -0.187125
  220 Fit      -0.181291
  221 Fit      -0.175532
  222 Fit      -0.170476
  223 Fit      -0.169664
  224 Fit      -0.168111
  225 Fit      -0.176187
  226 Fit      -0.176885
  227 Fit      -0.173459
  228 Fit      -0.170044
  229 Fit      -0.168919
  230 Fit      -0.164566
  231 Fit      -0.162665
  232 Fit      -0.169127
  233 Fit      -0.171426
  234 Fit      -0.168333
  235 Fit      -0.165593
  236 Fit      -0.171405
  237 Fit      -0.163398
  238 Fit      -0.158388
  239 Fit      -0.160942
  240 Fit      -0.164228
  241 Fit      -0.170756
  242 Fit      -0.181699
  243 Fit      -0.155311
  244 Fit      -0.163606
  245 Fit      -0.173824
  246 Fit      -0.181567
  247 Fit      -0.160150
  248 Fit      -0.173565
  249 Fit      -0.185897
  250 Fit      -0.198994
  251 Fit      -0.159245
  252 Fit      -0.176236
  253 Fit      -0.194140
  254 Fit      -0.163518
  255 Fit      -0.185349
  256 Fit      -0.113308
  257 Fit      -0.106185
  258 Fit      -0.130254
  259 Fit      -0.116894
  260 Fit      -0.118436
  261 Fit      -0.126867
  262 Fit      -0.129175
  263 Fit      -0.129414
  264 Fit      -0.133778
  265 Fit      -0.132751
  266 Fit      -0.138786
  267 Fit      -0.137925
  268 Fit      -0.136255
  269 Fit      -0.140486
  270 Fit      -0.141683
  271 Fit      -0.139891
  272 Fit      -0.138764
  273 Fit      -0.137595
  274 Fit      -0.142867
  275 Fit      -0.142556
  276 Fit      -0.140527
  277 Fit      -0.139751
  278 Fit      -0.139597
  279 Fit      -0.136948
  280 Fit      -0.142163
  281 Fit      -0.142229
  282 Fit      -0.140602
  283 Fit      -0.140187
  284 Fit      -0.137916
  285 Fit      -0.134969
  286 Fit      -0.140010
  287 Fit      -0.140777
  288 Fit      -0.139727
  289 Fit      -0.135922
  290 Fit      -0.133361
  291 Fit      -0.138498
  292 Fit      -0.160213
  293 Fit      -0.129849
  294 Fit      -0.115753
  295 Fit      -0.113423
  296 Fit      -0.119838
  297 Fit      -0.123415
  298 Fit      -0.123397
  299 Fit      -0.130908
  300 Fit      -0.127339
  301 Fit      -0.113821
  302 Fit      -0.109703
  303 Fit      -0.112465
  304 Fit      -0.117655
  305 Fit      -0.128752
  306 Fit      -0.113187
  307 Fit      -0.128053
  308 Fit      -0.112253
  309 Fit      -0.139319
  310 Fit      -0.113272
  311 Fit      -0.103892
  312 Fit      -0.106102
  313 Fit      -0.153734
  314 Fit      -0.118514
  315 Fit      -0.104819
  316 Fit      -0.102986
  317 Fit      -0.157580
  318 Fit      -0.120071
  319 Fit      -0.108345
  320 Fit      -0.110898
  321 Fit      -0.147043
  322 Fit      -0.121560
  323 Fit      -0.103442
  324 Fit      -0.104710
  325 Fit      -0.104510
  326 Fit      -0.097313
  327 Fit      -0.099914
  328 Fit      -0.114807
  329 Fit      -0.099044
  330 Fit      -0.097760
  331 Fit      -0.107649
  332 Fit      -0.136939
  333 Fit      -0.103505
  334 Fit      -0.109370
  335 Fit      -0.139995
  336 Fit      -0.115725
  337 Fit      -0.123942
  338 Fit      -0.106528
  339 Fit      -0.114871
  340 Fit      -0.103808
  341 Fit      -0.102402
  342 Fit      -0.106247
  343 Fit      -0.116283
  344 Fit      -0.125818
  345 Fit      -0.129494
  346 Fit      -0.112005
  347 Fit      -0.105848
  348 Fit      -0.112886
  349 Fit      -0.122352
  350 Fit      -0.141499
  351 Fit      -0.129403
  352 Fit      -0.153588
  353 Fit      -0.120347
  354 Fit      -0.121022
  355 Fit      -0.137857
  356 Fit      -0.146224
  357 Fit      -0.132169
  358 Fit      -0.139805
  359 Fit      -0.097851
  360 Fit      -0.110667
  361 Fit      -0.081319
  362 Fit      -0.081883
  363 Fit      -0.079709
  364 Fit      -0.082402
  365 Fit      -0.112332
  366 Fit      -0.100805
  367 Fit      -0.104044
  368 Fit      -0.089724
  369 Fit      -0.089263
  370 Fit      -0.128577
  371 Fit      -0.100002
  372 Fit      -0.085012
  373 Fit      -0.081164
  374 Fit      -0.085478
  375 Fit      -0.101543
  376 Fit      -0.085537
  377 Fit      -0.080112
  378 Fit      -0.081288
  379 Fit      -0.111934
  380 Fit      -0.090257
  381 Fit      -0.083044
  382 Fit      -0.090309
  383 Fit      -0.099238
  384 Fit      -0.082519
  385 Fit      -0.081731
  386 Fit      -0.089927
  387 Fit      -0.108792
  388 Fit      -0.079589
  389 Fit      -0.077455
  390 Fit      -0.081074
  391 Fit      -0.092317
  392 Fit      -0.112263
  393 Fit      -0.079995
  394 Fit      -0.079813
  395 Fit      -0.087167
  396 Fit      -0.103071
  397 Fit      -0.086016
  398 Fit      -0.093472
  399 Fit      -0.114446
  400 Fit      -0.093222
  401 Fit      -0.117715
  402 Fit      -0.121961
  403 Fit      -0.131314
  404 Fit      -0.127550
  405 Fit      -0.104588
  406 Fit      -0.088486
  407 Fit      -0.082146
  408 Fit      -0.083826
  409 Fit      -0.092191
  410 Fit      -0.105192
  411 Fit      -0.101386
  412 Fit      -0.105150
  413 Fit      -0.099175
  414 Fit      -0.087332
  415 Fit      -0.084416
  416 Fit      -0.091612
  417 Fit      -0.091359
  418 Fit      -0.141295
  419 Fit      -0.162018
  420 Fit      -0.144650
  421 Fit      -0.130487
  422 Fit      -0.141768
  423 Fit      -0.156683
  424 Fit      -0.145872
  425 Fit      -0.163984
  426 Fit      -0.159101
  427 Fit      -0.153447
  428 Fit      -0.147382
  429 Fit      -0.182631
  430 Fit      -0.167350
  431 Fit      -0.156349
  432 Fit      -0.153145
  433 Fit      -0.150064
  434 Fit      -0.179600
  435 Fit      -0.168373
  436 Fit      -0.161223
  437 Fit      -0.154528
  438 Fit      -0.152720
  439 Fit      -0.151276
  440 Fit      -0.174664
  441 Fit      -0.168336
  442 Fit      -0.162677
  443 Fit      -0.157887
  444 Fit      -0.153645
  445 Fit      -0.152638
  446 Fit      -0.151751
  447 Fit      -0.160930
  448 Fit      -0.159317
  449 Fit      -0.156125
  450 Fit      -0.153274
  451 Fit      -0.152185
  452 Fit      -0.149470
  453 Fit      -0.148874
  454 Fit      -0.153744
  455 Fit      -0.154863
  456 Fit      -0.152213
  457 Fit      -0.149743
  458 Fit      -0.155392
  459 Fit      -0.148535
  460 Fit      -0.146145
  461 Fit      -0.148640
  462 Fit      -0.154233
  463 Fit      -0.166370
  464 Fit      -0.143494
  465 Fit      -0.150416
  466 Fit      -0.158405
  467 Fit      -0.164945
  468 Fit      -0.148517
  469 Fit      -0.159071
  470 Fit      -0.170027
  471 Fit      -0.183197
  472 Fit      -0.149097
  473 Fit      -0.162845
  474 Fit      -0.180301
  475 Fit      -0.154567
  476 Fit      -0.175246
  477 Fit      -0.110298
  478 Fit      -0.132407
  479 Fit      -0.115526
  480 Fit      -0.101794
  481 Fit      -0.106933
  482 Fit      -0.113398
  483 Fit      -0.104260
  484 Fit      -0.111557
  485 Fit      -0.112731
  486 Fit      -0.117419
  487 Fit      -0.123480
  488 Fit      -0.122674
  489 Fit      -0.121839
  490 Fit      -0.125776
  491 Fit      -0.125394
  492 Fit      -0.124222
  493 Fit      -0.122374
  494 Fit      -0.128091
  495 Fit      -0.126915
  496 Fit      -0.125663
  497 Fit      -0.124859
  498 Fit      -0.129224
  499 Fit      -0.129102
  500 Fit      -0.127534
  501 Fit      -0.126344
  502 Fit      -0.125955
  503 Fit      -0.124881
  504 Fit      -0.129744
  505 Fit      -0.129222
  506 Fit      -0.127697
  507 Fit      -0.126745
  508 Fit      -0.126064
  509 Fit      -0.128573
  510 Fit      -0.127961
  511 Fit      -0.126698
  512 Fit      -0.126945
  513 Fit      -0.127856
  514 Fit      -0.112925
  515 Fit      -0.109326
  516 Fit      -0.114886
  517 Fit      -0.123671
  518 Fit      -0.123540
  519 Fit      -0.132767
  520 Fit      -0.124067
  521 Fit      -0.110283
  522 Fit      -0.106785
  523 Fit      -0.110165
  524 Fit      -0.115013
  525 Fit      -0.125976
  526 Fit      -0.110209
  527 Fit      -0.125488
  528 Fit      -0.109110
  529 Fit      -0.136532
  530 Fit      -0.111635
  531 Fit      -0.101435
  532 Fit      -0.101494
  533 Fit      -0.116810
  534 Fit      -0.102716
  535 Fit      -0.099263
  536 Fit      -0.103298
  537 Fit      -0.118290
  538 Fit      -0.105478
  539 Fit      -0.105230
  540 Fit      -0.117110
  541 Fit      -0.100047
  542 Fit      -0.101175
  543 Fit      -0.095102
  544 Fit      -0.095103
  545 Fit      -0.104617
  546 Fit      -0.097469
  547 Fit      -0.094528
  548 Fit      -0.100201
  549 Fit      -0.119080
  550 Fit      -0.101488
  551 Fit      -0.103139
  552 Fit      -0.121262
  553 Fit      -0.120930
  554 Fit      -0.103959
  555 Fit      -0.112496
  556 Fit      -0.100978
  557 Fit      -0.099456
  558 Fit      -0.103677
  559 Fit      -0.113754
  560 Fit      -0.123474
  561 Fit      -0.127964
  562 Fit      -0.110519
  563 Fit      -0.102910
  564 Fit      -0.121969
  565 Fit      -0.113537
  566 Fit      -0.115011
  567 Fit      -0.131005
  568 Fit      -0.110977
  569 Fit      -0.138394
  570 Fit      -0.125825
  571 Fit      -0.128436
  572 Fit      -0.095967
  573 Fit      -0.108734
  574 Fit      -0.079899
  575 Fit      -0.077183
  576 Fit      -0.105964
  577 Fit      -0.087408
  578 Fit      -0.079450
  579 Fit      -0.077564
  580 Fit      -0.084199
  581 Fit      -0.093737
  582 Fit      -0.108696
  583 Fit      -0.098804
  584 Fit      -0.102104
  585 Fit      -0.087726
  586 Fit      -0.087078
  587 Fit      -0.107131
  588 Fit      -0.088235
  589 Fit      -0.080080
  590 Fit      -0.079643
  591 Fit      -0.110301
  592 Fit      -0.089026
  593 Fit      -0.079846
  594 Fit      -0.077613
  595 Fit      -0.124496
  596 Fit      -0.095053
  597 Fit      -0.083252
  598 Fit      -0.088616
  599 Fit      -0.098960
  600 Fit      -0.079468
  601 Fit      -0.081813
  602 Fit      -0.092414
  603 Fit      -0.113780
  604 Fit      -0.076325
  605 Fit      -0.076484
  606 Fit      -0.082134
  607 Fit      -0.095120
  608 Fit      -0.117631
  609 Fit      -0.077390
  610 Fit      -0.079613
  611 Fit      -0.088765
  612 Fit      -0.105670
  613 Fit      -0.092116
  614 Fit      -0.110940
  615 Fit      -0.092163
  616 Fit      -0.082198
  617 Fit      -0.079614
  618 Fit      -0.083200
  619 Fit      -0.100235
  620 Fit      -0.103792
  621 Fit      -0.097420
  622 Fit      -0.085410
  623 Fit      -0.082498
  624 Fit      -0.089960
  625 Fit      -0.089740
  626 Fit      -0.133978
  627 Fit      -0.147883
  628 Fit      -0.134714
  629 Fit      -0.124536
  630 Fit      -0.131325
  631 Fit      -0.151316
  632 Fit      -0.133316
  633 Fit      -0.144609
  634 Fit      -0.137202
  635 Fit      -0.146611
  636 Fit      -0.141880
  637 Fit      -0.137895
  638 Fit      -0.166467
  639 Fit      -0.153728
  640 Fit      -0.143531
  641 Fit      -0.140400
  642 Fit      -0.137663
  643 Fit      -0.165892
  644 Fit      -0.154766
  645 Fit      -0.148034
  646 Fit      -0.141589
  647 Fit      -0.139635
  648 Fit      -0.138134
  649 Fit      -0.136099
  650 Fit      -0.162069
  651 Fit      -0.154246
  652 Fit      -0.148700
  653 Fit      -0.144548
  654 Fit      -0.140435
  655 Fit      -0.139133
  656 Fit      -0.138321
  657 Fit      -0.137278
  658 Fit      -0.153860
  659 Fit      -0.149949
  660 Fit      -0.146074
  661 Fit      -0.142767
  662 Fit      -0.139939
  663 Fit      -0.139100
  664 Fit      -0.138669
  665 Fit      -0.145265
  666 Fit      -0.145670
  667 Fit      -0.143952
  668 Fit      -0.141675
  669 Fit      -0.139763
  670 Fit      -0.138918
  671 Fit      -0.137771
  672 Fit      -0.138105
  673 Fit      -0.140941
  674 Fit      -0.141179
  675 Fit      -0.139335
  676 Fit      -0.137106
  677 Fit      -0.141603
  678 Fit      -0.136790
  679 Fit      -0.134613
  680 Fit      -0.136341
  681 Fit      -0.140426
  682 Fit      -0.149807
  683 Fit      -0.132939
  684 Fit      -0.134317
  685 Fit      -0.139035
  686 Fit      -0.144452
  687 Fit      -0.148839
  688 Fit      -0.131077
  689 Fit      -0.138174
  690 Fit      -0.145603
  691 Fit      -0.153501
  692 Fit      -0.161844
  693 Fit      -0.134717
  694 Fit      -0.143829
  695 Fit      -0.153616
  696 Fit      -0.166620
  697 Fit      -0.141151
  698 Fit      -0.153884
  699 Fit      -0.135511
  700 Fit      -0.147930
  701 Fit      -0.104946
  702 Fit      -0.111949
  703 Fit      -0.124601
  704 Fit      -0.097666
  705 Fit      -0.096824
  706 Fit      -0.101018
  707 Fit      -0.106480
  708 Fit      -0.101011
  709 Fit      -0.114599
  710 Fit      -0.114219
  711 Fit      -0.107425
  712 Fit      -0.109826
  713 Fit      -0.117536
  714 Fit      -0.113617
  715 Fit      -0.113076
  716 Fit      -0.115450
  717 Fit      -0.115003
  718 Fit      -0.114160
  719 Fit      -0.113279
  720 Fit      -0.116829
  721 Fit      -0.116120
  722 Fit      -0.115043
  723 Fit      -0.114209
  724 Fit      -0.113067
  725 Fit      -0.118155
  726 Fit      -0.117617
  727 Fit      -0.116413
  728 Fit      -0.115371
  729 Fit      -0.114774
  730 Fit      -0.114125
  731 Fit      -0.119754
  732 Fit      -0.118657
  733 Fit      -0.117240
  734 Fit      -0.116023
  735 Fit      -0.115409
  736 Fit      -0.114978
  737 Fit      -0.120529
  738 Fit      -0.119008
  739 Fit      -0.117525
  740 Fit      -0.116407
  741 Fit      -0.115777
  742 Fit      -0.119780
  743 Fit      -0.119318
  744 Fit      -0.117743
  745 Fit      -0.116469
  746 Fit      -0.117783
  747 Fit      -0.119798
  748 Fit      -0.107471
  749 Fit      -0.104479
  750 Fit      -0.109142
  751 Fit      -0.116265
  752 Fit      -0.116420
  753 Fit      -0.117180
  754 Fit      -0.125345
  755 Fit      -0.117414
  756 Fit      -0.106384
  757 Fit      -0.103522
  758 Fit      -0.106580
  759 Fit      -0.110945
  760 Fit      -0.119383
  761 Fit      -0.106941
  762 Fit      -0.107325
  763 Fit      -0.129252
  764 Fit      -0.108537
  765 Fit      -0.099565
  766 Fit      -0.099697
  767 Fit      -0.113094
  768 Fit      -0.100058
  769 Fit      -0.095777
  770 Fit      -0.097922
  771 Fit      -0.116403
  772 Fit      -0.101905
  773 Fit      -0.097195
  774 Fit      -0.099493
  775 Fit      -0.115952
  776 Fit      -0.104056
  777 Fit      -0.103522
  778 Fit      -0.092914
  779 Fit      -0.092579
  780 Fit      -0.099949
  781 Fit      -0.094833
  782 Fit      -0.090824
  783 Fit      -0.093091
  784 Fit      -0.103345
  785 Fit      -0.097794
  786 Fit      -0.093588
  787 Fit      -0.096792
  788 Fit      -0.110373
  789 Fit      -0.101345
  790 Fit      -0.102778
  791 Fit      -0.118358
  792 Fit      -0.101048
  793 Fit      -0.107919
  794 Fit      -0.098045
  795 Fit      -0.096391
  796 Fit      -0.100319
  797 Fit      -0.108872
  798 Fit      -0.116306
  799 Fit      -0.120591
  800 Fit      -0.105672
  801 Fit      -0.098430
  802 Fit      -0.115625
  803 Fit      -0.107761
  804 Fit      -0.109607
  805 Fit      -0.123982
  806 Fit      -0.108370
  807 Fit      -0.107880
  808 Fit      -0.128449
  809 Fit      -0.122131
  810 Fit      -0.131122
  811 Fit      -0.120283
  812 Fit      -0.093775
  813 Fit      -0.084048
  814 Fit      -0.088683
  815 Fit      -0.078978
  816 Fit      -0.075125
  817 Fit      -0.079425
  818 Fit      -0.075066
  819 Fit      -0.074215
  820 Fit      -0.080059
  821 Fit      -0.075951
  822 Fit      -0.076013
  823 Fit      -0.082165
  824 Fit      -0.091086
  825 Fit      -0.104602
  826 Fit      -0.096523
  827 Fit      -0.098703
  828 Fit      -0.086603
  829 Fit      -0.086090
  830 Fit      -0.101508
  831 Fit      -0.086080
  832 Fit      -0.079010
  833 Fit      -0.078664
  834 Fit      -0.091710
  835 Fit      -0.080376
  836 Fit      -0.075804
  837 Fit      -0.075963
  838 Fit      -0.095534
  839 Fit      -0.082304
  840 Fit      -0.076786
  841 Fit      -0.088524
  842 Fit      -0.098723
  843 Fit      -0.079408
  844 Fit      -0.082207
  845 Fit      -0.092883
  846 Fit      -0.114244
  847 Fit      -0.074824
  848 Fit      -0.076840
  849 Fit      -0.084137
  850 Fit      -0.098908
  851 Fit      -0.125144
  852 Fit      -0.073990
  853 Fit      -0.075921
  854 Fit      -0.082768
  855 Fit      -0.096203
  856 Fit      -0.118208
  857 Fit      -0.079154
  858 Fit      -0.087850
  859 Fit      -0.103342
  860 Fit      -0.099806
  861 Fit      -0.085606
  862 Fit      -0.111452
  863 Fit      -0.114553
  864 Fit      -0.102611
  865 Fit      -0.088026
  866 Fit      -0.079774
  867 Fit      -0.077657
  868 Fit      -0.080969
  869 Fit      -0.089337
  870 Fit      -0.096765
  871 Fit      -0.099446
  872 Fit      -0.093516
  873 Fit      -0.083547
  874 Fit      -0.081134
  875 Fit      -0.087745
  876 Fit      -0.087816
 -----------------------------------------------------------------
 Leave Link  602 at Mon Jun 26 16:24:34 2006, MaxMem=    6291456 cpu:       0.0

 Test job not archived.
 1|1|UNPC-UNK|FOpt|RHF|6-31G(d)|C5H8N1O3(1-)|PCUSER|26-Jun-2006|0||# OP
 T HF/6-31G* POP=MK IOP(6/33=2)||SIN||-1,1|C,0.0089380557,0.477949453,-
 1.9419301827|O,-0.4925633225,0.935846262,-2.9613142836|O,0.5112563772,
 -0.6482742247,-1.7622782738|C,-0.000236661,1.4463883743,-0.7256563686|
 C,0.8412846078,1.0486967493,0.5000970712|C,0.1853391495,0.0507445754,1
 .4413580175|O,-0.0525685478,0.3172920286,2.6011154893|H,-1.0372874497,
 1.6060607753,-0.4359968277|H,0.3487973423,2.4069901224,-1.0928163526|H
 ,1.0597955377,1.9211152629,1.1055012767|H,1.7810458266,0.6284606246,0.
 1564259939|N,-0.0958581068,-1.1422055869,0.8992103355|H,0.0806838536,-
 1.2406063797,-0.0904466679|C,-0.7739851131,-2.1638250059,1.646716586|H
 ,-0.2050501017,-2.4574766425,2.5232314863|H,-0.9011963063,-3.030872631
 6,1.0096940264|H,-1.7528182438,-1.8368694268,1.9862405203||Version=x86
 -Win32-G03RevB.03|State=1-A|HF=-473.1014437|RMSD=6.587e-009|RMSF=1.230
 e-005|Dipole=0.1119621,-0.5488189,2.1205004|PG=C01 [X(C5H8N1O3)]||@


 Cherishing children is the mark of a civilized society.
 -- Joan Ganz Cooney
 Job cpu time:  0 days  1 hours 28 minutes 27.0 seconds.
 File lengths (MBytes):  RWF=     21 Int=      0 D2E=      0 Chk=      5 Scr=      1
 Normal termination of Gaussian 03 at Mon Jun 26 16:24:35 2006.
 