 Entering Gaussian System, Link 0=g09
 Input=Lig.gjf
 Output=C:\Chimera1.10.2\bin\amber14\bin\Lig.out
 Initial command:
 C:\Users\Jicun\E_Prf\G09W\l1.exe .\gxx.inp C:\Chimera1.10.2\bin\amber14\bin\Lig.out /scrdir=.\
 Entering Link 1 = C:\Users\Jicun\E_Prf\G09W\l1.exe PID=      5456.
  
 Copyright (c) 1988,1990,1992,1993,1995,1998,2003,2009,2011,
            Gaussian, Inc.  All Rights Reserved.
  
 This is part of the Gaussian(R) 09 program.  It is based on
 the Gaussian(R) 03 system (copyright 2003, Gaussian, Inc.),
 the Gaussian(R) 98 system (copyright 1998, Gaussian, Inc.),
 the Gaussian(R) 94 system (copyright 1995, Gaussian, Inc.),
 the Gaussian 92(TM) system (copyright 1992, Gaussian, Inc.),
 the Gaussian 90(TM) system (copyright 1990, Gaussian, Inc.),
 the Gaussian 88(TM) system (copyright 1988, Gaussian, Inc.),
 the Gaussian 86(TM) system (copyright 1986, Carnegie Mellon
 University), and the Gaussian 82(TM) system (copyright 1983,
 Carnegie Mellon University). Gaussian is a federally registered
 trademark of Gaussian, Inc.
  
 This software contains proprietary and confidential information,
 including trade secrets, belonging to Gaussian, Inc.
  
 This software is provided under written license and may be
 used, copied, transmitted, or stored only in accord with that
 written license.
  
 The following legend is applicable only to US Government
 contracts under FAR:
  
                    RESTRICTED RIGHTS LEGEND
  
 Use, reproduction and disclosure by the US Government is
 subject to restrictions as set forth in subparagraphs (a)
 and (c) of the Commercial Computer Software - Restricted
 Rights clause in FAR 52.227-19.
  
 Gaussian, Inc.
 340 Quinnipiac St., Bldg. 40, Wallingford CT 06492
  
  
 ---------------------------------------------------------------
 Warning -- This program may not be used in any manner that
 competes with the business of Gaussian, Inc. or will provide
 assistance to any competitor of Gaussian, Inc.  The licensee
 of this program is prohibited from giving any competitor of
 Gaussian, Inc. access to this program.  By using this program,
 the user acknowledges that Gaussian, Inc. is engaged in the
 business of creating and licensing software in the field of
 computational chemistry and represents and warrants to the
 licensee that it is not a competitor of Gaussian, Inc. and that
 it will not use this program in any manner prohibited above.
 ---------------------------------------------------------------
  

 Cite this work as:
 Gaussian 09, Revision C.01,
 M. J. Frisch, G. W. Trucks, H. B. Schlegel, G. E. Scuseria, 
 M. A. Robb, J. R. Cheeseman, G. Scalmani, V. Barone, B. Mennucci, 
 G. A. Petersson, H. Nakatsuji, M. Caricato, X. Li, H. P. Hratchian, 
 A. F. Izmaylov, J. Bloino, G. Zheng, J. L. Sonnenberg, M. Hada, 
 M. Ehara, K. Toyota, R. Fukuda, J. Hasegawa, M. Ishida, T. Nakajima, 
 Y. Honda, O. Kitao, H. Nakai, T. Vreven, J. A. Montgomery, Jr., 
 J. E. Peralta, F. Ogliaro, M. Bearpark, J. J. Heyd, E. Brothers, 
 K. N. Kudin, V. N. Staroverov, T. Keith, R. Kobayashi, J. Normand, 
 K. Raghavachari, A. Rendell, J. C. Burant, S. S. Iyengar, J. Tomasi, 
 M. Cossi, N. Rega, J. M. Millam, M. Klene, J. E. Knox, J. B. Cross, 
 V. Bakken, C. Adamo, J. Jaramillo, R. Gomperts, R. E. Stratmann, 
 O. Yazyev, A. J. Austin, R. Cammi, C. Pomelli, J. W. Ochterski, 
 R. L. Martin, K. Morokuma, V. G. Zakrzewski, G. A. Voth, 
 P. Salvador, J. J. Dannenberg, S. Dapprich, A. D. Daniels, 
 O. Farkas, J. B. Foresman, J. V. Ortiz, J. Cioslowski, 
 and D. J. Fox, Gaussian, Inc., Wallingford CT, 2010.
 
 ******************************************
 Gaussian 09:  IA32W-G09RevC.01 23-Sep-2011
                01-Dec-2015 
 ******************************************
 %nprocshared=2
 Will use up to    2 processors via shared memory.
 %mem=1GB
 %chk=Lig.chk
 ----------------------------------------------------------------------
 # opt=tight hf/6-31g(d) nosymm scf=qc pop=mk iop(6/33=2,6/42=6,6/50=1)
 ----------------------------------------------------------------------
 1/7=10,18=20,19=15,38=1/1,3;
 2/9=110,12=2,15=1,17=6,18=5,40=1/2;
 3/5=1,6=6,7=1,11=9,16=1,25=1,30=1,71=1/1,2,3;
 4//1;
 5/5=2,8=3,38=5/8;
 6/7=2,8=2,9=2,10=2,15=8,20=1,28=1,33=2,42=6,50=1/1,2;
 7/30=1/1,2,3,16;
 1/7=10,18=20,19=15/3(2);
 2/9=110,15=1/2;
 99//99;
 2/9=110,15=1/2;
 3/5=1,6=6,7=1,11=9,16=1,25=1,30=1,71=1/1,2,3;
 4/5=5,16=3/1;
 5/5=2,8=3,38=5/8;
 7/30=1/1,2,3,16;
 1/7=10,18=20,19=15/3(-5);
 2/9=110,15=1/2;
 6/7=2,8=2,9=2,10=2,15=8,19=2,20=1,28=1,33=2,42=6,50=1/1,2;
 99/9=1/99;
 -------------
 Molecule Name
 -------------
 Charge =  0 Multiplicity = 1
 Symbolic Z-Matrix:
 C                     0.09544   4.17975  -3.80965 
 C                     0.80176   5.38903  -3.80885 
 C                     0.51305   6.37432  -2.85249 
 C                    -0.45856   6.13392  -1.8758 
 C                    -1.18031   4.93159  -1.88906 
 C                    -0.90248   3.95453  -2.85472 
 H                     1.56233   5.56315  -4.54229 
 C                     1.19956   7.59277  -2.90326 
 H                    -1.94182   4.75785  -1.15991 
 H                    -1.45082   3.03717  -2.86079 
 C                    -0.30346   8.46336  -1.24486 
 H                    -1.73198   7.12736  -0.6628 
 Cl                    0.46334   2.94534  -5.00949 
 N                    -0.74589   7.12382  -0.83061 
 O                     0.90932   8.65634  -1.98723 
 O                    -0.99788   9.46471  -0.92487 
 C                     2.46836   7.66605  -3.77523 
 C                     2.06539   7.12862  -1.71685 
 C                     2.73839   6.76831  -0.79497 
 C                     3.6092    6.31065   0.39228 
 C                     2.95652   5.50507   1.52982 
 C                     3.98332   4.83175   0.58972 
 H                     4.30132   7.08604   0.6549 
 H                     1.93421   5.2023    1.46989 
 H                     3.23306   5.67204   2.55152 
 H                     4.96925   4.59499   0.93251 
 H                     3.67049   4.12556  -0.14844 
 F                     2.17575   7.26576  -5.03005 
 F                     3.42084   6.86041  -3.2567 
 F                     2.92231   8.93763  -3.80142 
 

 GradGradGradGradGradGradGradGradGradGradGradGradGradGradGradGradGradGrad
 Berny optimization.
 Initialization pass.
                           ----------------------------
                           !    Initial Parameters    !
                           ! (Angstroms and Degrees)  !
 --------------------------                            --------------------------
 ! Name  Definition              Value          Derivative Info.                !
 --------------------------------------------------------------------------------
 ! R1    R(1,2)                  1.4004         estimate D2E/DX2                !
 ! R2    R(1,6)                  1.3994         estimate D2E/DX2                !
 ! R3    R(1,13)                 1.7603         estimate D2E/DX2                !
 ! R4    R(2,3)                  1.4031         estimate D2E/DX2                !
 ! R5    R(2,7)                  1.0709         estimate D2E/DX2                !
 ! R6    R(3,4)                  1.3985         estimate D2E/DX2                !
 ! R7    R(3,8)                  1.3995         estimate D2E/DX2                !
 ! R8    R(4,5)                  1.4024         estimate D2E/DX2                !
 ! R9    R(4,14)                 1.468          estimate D2E/DX2                !
 ! R10   R(5,6)                  1.4016         estimate D2E/DX2                !
 ! R11   R(5,9)                  1.0685         estimate D2E/DX2                !
 ! R12   R(6,10)                 1.0688         estimate D2E/DX2                !
 ! R13   R(8,15)                 1.4334         estimate D2E/DX2                !
 ! R14   R(8,17)                 1.5413         estimate D2E/DX2                !
 ! R15   R(8,18)                 1.5403         estimate D2E/DX2                !
 ! R16   R(11,14)                1.4703         estimate D2E/DX2                !
 ! R17   R(11,15)                1.435          estimate D2E/DX2                !
 ! R18   R(11,16)                1.2599         estimate D2E/DX2                !
 ! R19   R(12,14)                1.0003         estimate D2E/DX2                !
 ! R20   R(17,28)                1.3492         estimate D2E/DX2                !
 ! R21   R(17,29)                1.351          estimate D2E/DX2                !
 ! R22   R(17,30)                1.3504         estimate D2E/DX2                !
 ! R23   R(18,19)                1.1969         estimate D2E/DX2                !
 ! R24   R(19,20)                1.5418         estimate D2E/DX2                !
 ! R25   R(20,21)                1.5391         estimate D2E/DX2                !
 ! R26   R(20,22)                1.5382         estimate D2E/DX2                !
 ! R27   R(20,23)                1.072          estimate D2E/DX2                !
 ! R28   R(21,22)                1.5464         estimate D2E/DX2                !
 ! R29   R(21,24)                1.0679         estimate D2E/DX2                !
 ! R30   R(21,25)                1.0715         estimate D2E/DX2                !
 ! R31   R(22,26)                1.0703         estimate D2E/DX2                !
 ! R32   R(22,27)                1.0684         estimate D2E/DX2                !
 ! A1    A(2,1,6)              119.8825         estimate D2E/DX2                !
 ! A2    A(2,1,13)             120.0332         estimate D2E/DX2                !
 ! A3    A(6,1,13)             120.0842         estimate D2E/DX2                !
 ! A4    A(1,2,3)              120.1967         estimate D2E/DX2                !
 ! A5    A(1,2,7)              119.8826         estimate D2E/DX2                !
 ! A6    A(3,2,7)              119.9204         estimate D2E/DX2                !
 ! A7    A(2,3,4)              119.8847         estimate D2E/DX2                !
 ! A8    A(2,3,8)              119.0596         estimate D2E/DX2                !
 ! A9    A(4,3,8)              121.0528         estimate D2E/DX2                !
 ! A10   A(3,4,5)              119.891          estimate D2E/DX2                !
 ! A11   A(3,4,14)             121.1529         estimate D2E/DX2                !
 ! A12   A(5,4,14)             118.9556         estimate D2E/DX2                !
 ! A13   A(4,5,6)              120.1433         estimate D2E/DX2                !
 ! A14   A(4,5,9)              119.9834         estimate D2E/DX2                !
 ! A15   A(6,5,9)              119.873          estimate D2E/DX2                !
 ! A16   A(1,6,5)              119.9541         estimate D2E/DX2                !
 ! A17   A(1,6,10)             120.0077         estimate D2E/DX2                !
 ! A18   A(5,6,10)             120.0382         estimate D2E/DX2                !
 ! A19   A(3,8,15)             121.5686         estimate D2E/DX2                !
 ! A20   A(3,8,17)             117.7587         estimate D2E/DX2                !
 ! A21   A(3,8,18)              89.1661         estimate D2E/DX2                !
 ! A22   A(15,8,17)            119.5357         estimate D2E/DX2                !
 ! A23   A(15,8,18)             81.0934         estimate D2E/DX2                !
 ! A24   A(17,8,18)             89.2754         estimate D2E/DX2                !
 ! A25   A(14,11,15)           121.5071         estimate D2E/DX2                !
 ! A26   A(14,11,16)           119.1241         estimate D2E/DX2                !
 ! A27   A(15,11,16)           119.3626         estimate D2E/DX2                !
 ! A28   A(4,14,11)            110.7859         estimate D2E/DX2                !
 ! A29   A(4,14,12)            108.3487         estimate D2E/DX2                !
 ! A30   A(11,14,12)           109.9196         estimate D2E/DX2                !
 ! A31   A(8,15,11)            113.7011         estimate D2E/DX2                !
 ! A32   A(8,17,28)            109.4827         estimate D2E/DX2                !
 ! A33   A(8,17,29)            109.5659         estimate D2E/DX2                !
 ! A34   A(8,17,30)            109.4183         estimate D2E/DX2                !
 ! A35   A(28,17,29)           109.4473         estimate D2E/DX2                !
 ! A36   A(28,17,30)           109.5249         estimate D2E/DX2                !
 ! A37   A(29,17,30)           109.3882         estimate D2E/DX2                !
 ! A38   A(19,20,21)           119.01           estimate D2E/DX2                !
 ! A39   A(19,20,22)           121.4384         estimate D2E/DX2                !
 ! A40   A(19,20,23)           109.7903         estimate D2E/DX2                !
 ! A41   A(21,20,23)           118.118          estimate D2E/DX2                !
 ! A42   A(22,20,23)           120.4599         estimate D2E/DX2                !
 ! A43   A(20,21,24)           120.8548         estimate D2E/DX2                !
 ! A44   A(20,21,25)           120.9105         estimate D2E/DX2                !
 ! A45   A(22,21,24)           118.5598         estimate D2E/DX2                !
 ! A46   A(22,21,25)           118.4329         estimate D2E/DX2                !
 ! A47   A(24,21,25)           110.1666         estimate D2E/DX2                !
 ! A48   A(20,22,26)           118.543          estimate D2E/DX2                !
 ! A49   A(20,22,27)           118.3985         estimate D2E/DX2                !
 ! A50   A(21,22,26)           120.8796         estimate D2E/DX2                !
 ! A51   A(21,22,27)           120.8903         estimate D2E/DX2                !
 ! A52   A(26,22,27)           110.1681         estimate D2E/DX2                !
 ! A53   L(8,18,19,5,-1)       180.0194         estimate D2E/DX2                !
 ! A54   L(18,19,20,9,-1)      180.2528         estimate D2E/DX2                !
 ! A55   L(8,18,19,5,-2)       180.0059         estimate D2E/DX2                !
 ! A56   L(18,19,20,9,-2)      180.1364         estimate D2E/DX2                !
 ! D1    D(6,1,2,3)              0.0883         estimate D2E/DX2                !
 ! D2    D(6,1,2,7)           -179.7251         estimate D2E/DX2                !
 ! D3    D(13,1,2,3)          -179.8804         estimate D2E/DX2                !
 ! D4    D(13,1,2,7)             0.3062         estimate D2E/DX2                !
 ! D5    D(2,1,6,5)             -0.8622         estimate D2E/DX2                !
 ! D6    D(2,1,6,10)           179.265          estimate D2E/DX2                !
 ! D7    D(13,1,6,5)           179.1065         estimate D2E/DX2                !
 ! D8    D(13,1,6,10)           -0.7664         estimate D2E/DX2                !
 ! D9    D(1,2,3,4)              1.6762         estimate D2E/DX2                !
 ! D10   D(1,2,3,8)           -177.7112         estimate D2E/DX2                !
 ! D11   D(7,2,3,4)           -178.5104         estimate D2E/DX2                !
 ! D12   D(7,2,3,8)              2.1022         estimate D2E/DX2                !
 ! D13   D(2,3,4,5)             -2.658          estimate D2E/DX2                !
 ! D14   D(2,3,4,14)           177.5903         estimate D2E/DX2                !
 ! D15   D(8,3,4,5)            176.7169         estimate D2E/DX2                !
 ! D16   D(8,3,4,14)            -3.0347         estimate D2E/DX2                !
 ! D17   D(2,3,8,15)           177.4414         estimate D2E/DX2                !
 ! D18   D(2,3,8,17)           -14.809          estimate D2E/DX2                !
 ! D19   D(2,3,8,18)          -103.551          estimate D2E/DX2                !
 ! D20   D(4,3,8,15)            -1.9387         estimate D2E/DX2                !
 ! D21   D(4,3,8,17)           165.811          estimate D2E/DX2                !
 ! D22   D(4,3,8,18)            77.0689         estimate D2E/DX2                !
 ! D23   D(3,4,5,6)              1.8896         estimate D2E/DX2                !
 ! D24   D(3,4,5,9)           -178.3            estimate D2E/DX2                !
 ! D25   D(14,4,5,6)          -178.3533         estimate D2E/DX2                !
 ! D26   D(14,4,5,9)             1.4571         estimate D2E/DX2                !
 ! D27   D(3,4,14,11)           21.1799         estimate D2E/DX2                !
 ! D28   D(3,4,14,12)          141.8325         estimate D2E/DX2                !
 ! D29   D(5,4,14,11)         -158.574          estimate D2E/DX2                !
 ! D30   D(5,4,14,12)          -37.9214         estimate D2E/DX2                !
 ! D31   D(4,5,6,1)             -0.1247         estimate D2E/DX2                !
 ! D32   D(4,5,6,10)           179.7481         estimate D2E/DX2                !
 ! D33   D(9,5,6,1)           -179.9353         estimate D2E/DX2                !
 ! D34   D(9,5,6,10)            -0.0625         estimate D2E/DX2                !
 ! D35   D(3,8,15,11)          -12.7601         estimate D2E/DX2                !
 ! D36   D(17,8,15,11)         179.7029         estimate D2E/DX2                !
 ! D37   D(18,8,15,11)         -96.2382         estimate D2E/DX2                !
 ! D38   D(3,8,17,28)           54.3446         estimate D2E/DX2                !
 ! D39   D(3,8,17,29)          -65.6912         estimate D2E/DX2                !
 ! D40   D(3,8,17,30)          174.3849         estimate D2E/DX2                !
 ! D41   D(15,8,17,28)        -137.648          estimate D2E/DX2                !
 ! D42   D(15,8,17,29)         102.3162         estimate D2E/DX2                !
 ! D43   D(15,8,17,30)         -17.6076         estimate D2E/DX2                !
 ! D44   D(18,8,17,28)         143.0206         estimate D2E/DX2                !
 ! D45   D(18,8,17,29)          22.9849         estimate D2E/DX2                !
 ! D46   D(18,8,17,30)         -96.939          estimate D2E/DX2                !
 ! D47   D(3,8,20,21)          -38.3911         estimate D2E/DX2                !
 ! D48   D(3,8,20,22)           32.8105         estimate D2E/DX2                !
 ! D49   D(3,8,20,23)         -178.8892         estimate D2E/DX2                !
 ! D50   D(15,8,20,21)          83.7508         estimate D2E/DX2                !
 ! D51   D(15,8,20,22)         154.9524         estimate D2E/DX2                !
 ! D52   D(15,8,20,23)         -56.7473         estimate D2E/DX2                !
 ! D53   D(17,8,20,21)        -156.166          estimate D2E/DX2                !
 ! D54   D(17,8,20,22)         -84.9644         estimate D2E/DX2                !
 ! D55   D(17,8,20,23)          63.3359         estimate D2E/DX2                !
 ! D56   D(15,11,14,4)         -37.9492         estimate D2E/DX2                !
 ! D57   D(15,11,14,12)       -157.6648         estimate D2E/DX2                !
 ! D58   D(16,11,14,4)         142.9664         estimate D2E/DX2                !
 ! D59   D(16,11,14,12)         23.2508         estimate D2E/DX2                !
 ! D60   D(14,11,15,8)          34.2733         estimate D2E/DX2                !
 ! D61   D(16,11,15,8)        -146.6444         estimate D2E/DX2                !
 ! D62   D(19,20,21,24)          4.4894         estimate D2E/DX2                !
 ! D63   D(19,20,21,25)       -141.1765         estimate D2E/DX2                !
 ! D64   D(23,20,21,24)        141.8202         estimate D2E/DX2                !
 ! D65   D(23,20,21,25)         -3.8457         estimate D2E/DX2                !
 ! D66   D(19,20,22,26)        141.0986         estimate D2E/DX2                !
 ! D67   D(19,20,22,27)          3.3458         estimate D2E/DX2                !
 ! D68   D(23,20,22,26)         -3.9755         estimate D2E/DX2                !
 ! D69   D(23,20,22,27)       -141.7283         estimate D2E/DX2                !
 ! D70   D(24,21,22,26)       -141.7183         estimate D2E/DX2                !
 ! D71   D(24,21,22,27)          3.9598         estimate D2E/DX2                !
 ! D72   D(25,21,22,26)         -3.8961         estimate D2E/DX2                !
 ! D73   D(25,21,22,27)        141.782          estimate D2E/DX2                !
 --------------------------------------------------------------------------------
 Trust Radius=3.00D-01 FncErr=1.00D-07 GrdErr=1.00D-07
 Number of steps in this run=    171 maximum allowed number of steps=    180.
 GradGradGradGradGradGradGradGradGradGradGradGradGradGradGradGradGradGrad

                          Input orientation:                          
 ---------------------------------------------------------------------
 Center     Atomic      Atomic             Coordinates (Angstroms)
 Number     Number       Type             X           Y           Z
 ---------------------------------------------------------------------
      1          6           0        0.095439    4.179752   -3.809646
      2          6           0        0.801758    5.389033   -3.808847
      3          6           0        0.513050    6.374324   -2.852491
      4          6           0       -0.458561    6.133916   -1.875805
      5          6           0       -1.180314    4.931594   -1.889055
      6          6           0       -0.902483    3.954532   -2.854723
      7          1           0        1.562335    5.563147   -4.542291
      8          6           0        1.199564    7.592770   -2.903260
      9          1           0       -1.941823    4.757846   -1.159914
     10          1           0       -1.450815    3.037171   -2.860786
     11          6           0       -0.303459    8.463358   -1.244855
     12          1           0       -1.731981    7.127359   -0.662798
     13         17           0        0.463338    2.945336   -5.009489
     14          7           0       -0.745894    7.123822   -0.830615
     15          8           0        0.909323    8.656340   -1.987234
     16          8           0       -0.997878    9.464705   -0.924868
     17          6           0        2.468362    7.666049   -3.775230
     18          6           0        2.065385    7.128621   -1.716848
     19          6           0        2.738393    6.768312   -0.794966
     20          6           0        3.609198    6.310653    0.392278
     21          6           0        2.956525    5.505066    1.529824
     22          6           0        3.983318    4.831752    0.589722
     23          1           0        4.301319    7.086044    0.654901
     24          1           0        1.934207    5.202299    1.469889
     25          1           0        3.233060    5.672042    2.551521
     26          1           0        4.969248    4.594993    0.932507
     27          1           0        3.670488    4.125560   -0.148443
     28          9           0        2.175755    7.265758   -5.030054
     29          9           0        3.420838    6.860414   -3.256699
     30          9           0        2.922308    8.937630   -3.801425
 ---------------------------------------------------------------------
                    Distance matrix (angstroms):
                    1          2          3          4          5
     1  C    0.000000
     2  C    1.400446   0.000000
     3  C    2.430369   1.403127   0.000000
     4  C    2.804535   2.424852   1.398478   0.000000
     5  C    2.425176   2.797045   2.424286   1.402384   0.000000
     6  C    1.399446   2.423341   2.803415   2.430034   1.401555
     7  H    2.145305   1.070856   2.148122   3.394105   3.867899
     8  C    3.699908   2.415532   1.399461   2.435836   3.711373
     9  H    3.392006   3.865550   3.391787   2.146191   1.068518
    10  H    2.143998   3.391779   3.872134   3.397733   2.146222
    11  C    5.008648   4.152954   2.759573   2.418357   3.695568
    12  H    4.683002   4.397639   3.225210   2.019879   2.574767
    13  Cl   1.760328   2.743670   4.051305   4.564748   4.047706
    14  N    4.272004   3.778172   2.496932   1.467956   2.472829
    15  O    4.901371   3.742344   2.472509   2.871610   4.271997
    16  O    6.119479   5.307271   3.943234   3.505610   4.638107
    17  C    4.217372   2.821968   2.518580   3.810791   4.934343
    18  C    4.117806   2.999896   2.066009   2.717538   3.923156
    19  C    4.772226   3.838807   3.056270   3.433829   4.463948
    20  C    5.877364   5.136200   4.485389   4.660697   5.481397
    21  C    6.200985   5.758289   5.092236   4.863802   5.397318
    22  C    5.907211   5.457132   5.125536   5.244496   5.728647
    23  H    6.787352   5.920458   5.211462   5.474256   6.415737
    24  H    5.683323   5.402070   4.698542   4.217453   4.588685
    25  H    7.248176   6.815101   6.090567   5.782959   6.304352
    26  H    6.812815   6.362304   6.111459   6.302064   6.774336
    27  H    5.117453   4.819184   4.726334   4.905744   5.216292
    28  F    3.916701   2.627035   2.881150   4.262626   5.155327
    29  F    4.306969   3.054408   2.975718   4.181436   5.173142
    30  F    5.534316   4.133923   3.643561   4.795737   6.044583
                    6          7          8          9         10
     6  C    0.000000
     7  H    3.392765   0.000000
     8  C    4.202111   2.633894   0.000000
     9  H    2.144276   4.936406   4.576501   0.000000
    10  H    1.068764   4.276340   5.270654   2.468760   0.000000
    11  C    4.824937   4.771320   2.401522   4.052440   5.776778
    12  H    3.944545   5.324447   3.718902   2.430175   4.651864
    13  Cl   2.743530   2.877325   5.155276   4.887660   2.879122
    14  N    3.763766   4.641138   2.881072   2.671428   4.617275
    15  O    5.112943   4.064798   1.433362   4.900178   6.156980
    16  O    5.839132   5.904456   3.499561   4.806329   6.728011
    17  C    5.097577   2.414843   1.541282   5.894680   6.133733
    18  C    4.491976   3.269082   1.540341   4.689186   5.514728
    19  C    5.041422   4.108282   2.737266   5.106817   5.978167
    20  C    6.037349   5.394292   4.279103   5.969450   6.848491
    21  C    6.043207   6.230387   5.205540   5.637982   6.692728
    22  C    6.041917   5.721333   5.251040   6.178509   6.682538
    23  H    7.014513   6.068942   4.747438   6.905859   7.863872
    24  H    5.320338   6.034468   5.037705   4.704998   5.907698
    25  H    7.019974   7.288714   6.130166   6.433500   7.627208
    26  H    7.016446   6.520567   6.157133   7.222717   7.617945
    27  H    5.316509   5.081030   5.071097   5.737673   5.896536
    28  F    5.017154   1.874322   2.362867   6.182399   5.978184
    29  F    5.224638   2.605702   2.365443   6.129880   6.205396
    30  F    6.352679   3.712889   2.362878   6.935989   7.404351
                   11         12         13         14         15
    11  C    0.000000
    12  H    2.040676   0.000000
    13  Cl   6.723765   6.418915   0.000000
    14  N    1.470272   1.000271   6.031996   0.000000
    15  O    1.434994   3.326920   6.476766   2.534979   0.000000
    16  O    1.259884   2.463894   7.830802   2.356292   2.327980
    17  C    3.836859   5.255502   5.275287   4.392745   2.570644
    18  C    2.759660   3.940941   5.559489   2.947664   1.934816
    19  C    3.511188   4.486716   6.128068   3.502558   2.886460
    20  C    4.756388   5.505304   7.099357   4.596034   4.295771
    21  C    5.203636   5.424159   7.451900   4.679738   5.146966
    22  C    5.910219   6.285161   6.877498   5.443930   5.542347
    23  H    5.168177   6.175657   7.997555   5.261420   4.577373
    24  H    4.797029   4.657804   7.017098   4.020884   4.993244
    25  H    5.891595   6.091094   8.501480   5.420201   5.908138
    26  H    6.892502   7.339232   7.637533   6.493567   6.442237
    27  H    5.984218   6.201776   5.942096   5.381390   5.615439
    28  F    4.680649   5.861952   4.647455   5.117760   3.577195
    29  F    4.526293   5.775043   5.210270   4.828760   3.338353
    30  F    4.143254   5.898344   6.588895   5.056808   2.724430
                   16         17         18         19         20
    16  O    0.000000
    17  C    4.834723   0.000000
    18  C    3.932951   2.165215   0.000000
    19  C    4.609461   3.124231   1.196925   0.000000
    20  C    5.736555   4.528435   2.738766   1.541850   0.000000
    21  C    6.110774   5.749065   3.737773   2.654811   1.539144
    22  C    6.969257   5.420436   3.778139   2.686533   1.538212
    23  H    6.019568   4.829306   3.259817   2.155414   1.072024
    24  H    5.700885   5.819507   3.726019   2.868567   2.279318
    25  H    6.661112   6.677470   4.658763   3.556049   2.282901
    26  H    7.922786   6.152122   4.676620   3.561487   2.255011
    27  H    7.134631   5.209007   3.748950   2.875923   2.251837
    28  F    5.635590   1.349235   3.317879   4.301161   5.689347
    29  F    5.634254   1.350974   2.068895   2.556236   3.694963
    30  F    4.890833   1.350433   2.890032   3.711948   4.995995
                   21         22         23         24         25
    21  C    0.000000
    22  C    1.546431   0.000000
    23  H    2.252433   2.277543   0.000000
    24  H    1.067892   2.260720   3.133037   0.000000
    25  H    1.071549   2.262218   2.595717   1.754311   0.000000
    26  H    2.288247   1.070334   2.593941   3.141508   2.606835
    27  H    2.286780   1.068390   3.131737   2.606346   3.142095
    28  F    6.836786   6.385417   6.071988   6.823889   7.819087
    29  F    4.996335   4.384838   4.015816   5.224945   5.931519
    30  F    6.340811   6.104600   5.018853   6.535731   7.149864
                   26         27         28         29         30
    26  H    0.000000
    27  H    1.753738   0.000000
    28  F    7.105542   5.993763   0.000000
    29  F    5.007909   4.147651   2.204387   0.000000
    30  F    6.742297   6.087698   2.205000   2.204560   0.000000
 Symmetry turned off by external request.
 Stoichiometry    C14H9ClF3NO2
 Framework group  C1[X(C14H9ClF3NO2)]
 Deg. of freedom    84
 Full point group                 C1      NOp   1
 Rotational constants (GHZ):      0.3108522      0.2297180      0.2209724
 Standard basis: 6-31G(d) (6D, 7F)
 Integral buffers will be    262144 words long.
 Raffenetti 1 integral format.
 Two-electron integral symmetry is turned off.
   337 basis functions,   648 primitive gaussians,   337 cartesian basis functions
    80 alpha electrons       80 beta electrons
       nuclear repulsion energy      1873.5101462095 Hartrees.
 NAtoms=   30 NActive=   30 NUniq=   30 SFac= 1.00D+00 NAtFMM=   60 NAOKFM=F Big=F
 One-electron integrals computed using PRISM.
 NBasis=   337 RedAO= T  NBF=   337
 NBsUse=   337 1.00D-06 NBFU=   337
 Harris functional with IExCor=  205 diagonalized for initial guess.
 ExpMin= 1.43D-01 ExpMax= 2.52D+04 ExpMxC= 3.78D+03 IAcc=1 IRadAn=         1 AccDes= 0.00D+00
 HarFok:  IExCor=  205 AccDes= 0.00D+00 IRadAn=         1 IDoV= 1
 ScaDFX=  1.000000  1.000000  1.000000  1.000000
 FoFCou: FMM=F IPFlag=           0 FMFlag=      100000 FMFlg1=           0
         NFxFlg=           0 DoJE=T BraDBF=F KetDBF=T FulRan=T
         Omega=  0.000000  0.000000  1.000000  0.000000  0.000000 ICntrl=     500 IOpCl=  0
         NMat0=    1 NMatS0=    1 NMatT0=    0 NMatD0=    1 NMtDS0=    0 NMtDT0=    0
         I1Cent=           4 NGrid=           0.
 Symmetry not used in FoFCou.
 Gradient too large for Newton-Raphson -- use scaled steepest descent instead.
 Gradient too large for Newton-Raphson -- use scaled steepest descent instead.
 Gradient too large for Newton-Raphson -- use scaled steepest descent instead.
 Gradient too large for Newton-Raphson -- use scaled steepest descent instead.
 Gradient too large for Newton-Raphson -- use scaled steepest descent instead.
 Gradient too large for Newton-Raphson -- use scaled steepest descent instead.
 LinEq1:  Iter=  0 NonCon=     1 RMS=4.66D-05 Max=1.98D-03
 AX will form     1 AO Fock derivatives at one time.
 LinEq1:  Iter=  1 NonCon=     1 RMS=3.35D-05 Max=1.66D-03
 LinEq1:  Iter=  2 NonCon=     1 RMS=5.77D-06 Max=2.83D-04
 LinEq1:  Iter=  3 NonCon=     1 RMS=1.53D-06 Max=4.84D-05
 LinEq1:  Iter=  4 NonCon=     1 RMS=8.21D-07 Max=2.79D-05
 LinEq1:  Iter=  5 NonCon=     1 RMS=1.27D-07 Max=6.02D-06
 LinEq1:  Iter=  6 NonCon=     1 RMS=6.03D-08 Max=3.65D-06
 LinEq1:  Iter=  7 NonCon=     1 RMS=2.16D-08 Max=7.80D-07
 LinEq1:  Iter=  8 NonCon=     0 RMS=4.98D-09 Max=1.34D-07
 Linear equations converged to 2.028D-08 2.028D-07 after     8 iterations.
 LinEq1:  Iter=  0 NonCon=     1 RMS=1.14D-07 Max=3.50D-06
 LinEq1:  Iter=  1 NonCon=     1 RMS=6.41D-08 Max=2.00D-06
 LinEq1:  Iter=  2 NonCon=     1 RMS=2.23D-08 Max=5.58D-07
 LinEq1:  Iter=  3 NonCon=     1 RMS=1.23D-08 Max=3.88D-07
 LinEq1:  Iter=  4 NonCon=     1 RMS=3.91D-09 Max=2.23D-07
 LinEq1:  Iter=  5 NonCon=     1 RMS=1.74D-09 Max=6.35D-08
 LinEq1:  Iter=  6 NonCon=     1 RMS=6.63D-10 Max=3.27D-08
 LinEq1:  Iter=  7 NonCon=     1 RMS=3.00D-10 Max=1.32D-08
 LinEq1:  Iter=  8 NonCon=     1 RMS=1.13D-10 Max=3.58D-09
 LinEq1:  Iter=  9 NonCon=     0 RMS=4.68D-11 Max=1.38D-09
 Linear equations converged to 2.614D-10 2.614D-09 after     9 iterations.
 Density matrix is not symmetric, so final MOs not symmetrized.
 SCF Done:  E(RHF) =  -1497.04883419     a.u. after    9 cycles
            Convg  =    0.2627D-07                    42 Fock formations.
              S**2 =  0.0000                  -V/T =  2.0018

 **********************************************************************

            Population analysis using the SCF density.

 **********************************************************************

 Alpha  occ. eigenvalues -- -104.84194 -26.37616 -26.36809 -26.36632 -20.66771
 Alpha  occ. eigenvalues --  -20.58160 -15.64729 -11.56376 -11.46506 -11.38307
 Alpha  occ. eigenvalues --  -11.32666 -11.32467 -11.30730 -11.27728 -11.27385
 Alpha  occ. eigenvalues --  -11.27363 -11.27246 -11.24037 -11.23980 -11.23945
 Alpha  occ. eigenvalues --  -11.22478 -10.57464  -8.04402  -8.04066  -8.04062
 Alpha  occ. eigenvalues --   -1.75076  -1.66442  -1.65600  -1.48997  -1.37991
 Alpha  occ. eigenvalues --   -1.27653  -1.21218  -1.17236  -1.13410  -1.11260
 Alpha  occ. eigenvalues --   -1.05081  -1.01958  -1.01085  -0.94948  -0.91324
 Alpha  occ. eigenvalues --   -0.87936  -0.85717  -0.84340  -0.84094  -0.84009
 Alpha  occ. eigenvalues --   -0.82841  -0.79017  -0.76882  -0.75378  -0.73333
 Alpha  occ. eigenvalues --   -0.72623  -0.71509  -0.69160  -0.69074  -0.67520
 Alpha  occ. eigenvalues --   -0.67283  -0.66885  -0.66339  -0.65343  -0.65093
 Alpha  occ. eigenvalues --   -0.63794  -0.61752  -0.60659  -0.58879  -0.57810
 Alpha  occ. eigenvalues --   -0.55035  -0.54563  -0.54319  -0.52843  -0.52520
 Alpha  occ. eigenvalues --   -0.48687  -0.47970  -0.46782  -0.46049  -0.44980
 Alpha  occ. eigenvalues --   -0.43860  -0.39197  -0.35433  -0.34504  -0.32169
 Alpha virt. eigenvalues --    0.08768   0.10234   0.13609   0.17179   0.18607
 Alpha virt. eigenvalues --    0.21019   0.22220   0.23547   0.25030   0.26103
 Alpha virt. eigenvalues --    0.27658   0.29122   0.29213   0.30553   0.30753
 Alpha virt. eigenvalues --    0.31723   0.32747   0.34119   0.35229   0.36894
 Alpha virt. eigenvalues --    0.37460   0.38867   0.39601   0.39948   0.40702
 Alpha virt. eigenvalues --    0.42337   0.43096   0.43973   0.44676   0.46364
 Alpha virt. eigenvalues --    0.47176   0.50115   0.53299   0.55186   0.55856
 Alpha virt. eigenvalues --    0.58468   0.58751   0.60694   0.62326   0.62626
 Alpha virt. eigenvalues --    0.64718   0.66195   0.66895   0.70356   0.70724
 Alpha virt. eigenvalues --    0.71501   0.73704   0.73761   0.74973   0.75869
 Alpha virt. eigenvalues --    0.78054   0.78558   0.78751   0.80152   0.80723
 Alpha virt. eigenvalues --    0.80908   0.82412   0.82984   0.83424   0.84718
 Alpha virt. eigenvalues --    0.85086   0.85540   0.86699   0.87279   0.89081
 Alpha virt. eigenvalues --    0.89746   0.90925   0.93336   0.94198   0.95739
 Alpha virt. eigenvalues --    0.97841   0.98773   0.99988   1.01764   1.02838
 Alpha virt. eigenvalues --    1.05144   1.06965   1.08322   1.09284   1.10072
 Alpha virt. eigenvalues --    1.11575   1.12272   1.13859   1.14308   1.14771
 Alpha virt. eigenvalues --    1.14882   1.15954   1.16202   1.17521   1.18340
 Alpha virt. eigenvalues --    1.19047   1.19166   1.20580   1.22472   1.22837
 Alpha virt. eigenvalues --    1.23709   1.23903   1.25291   1.27080   1.31272
 Alpha virt. eigenvalues --    1.32084   1.32658   1.33153   1.34840   1.35454
 Alpha virt. eigenvalues --    1.37535   1.38333   1.39734   1.41023   1.41561
 Alpha virt. eigenvalues --    1.43457   1.43865   1.44432   1.46943   1.48273
 Alpha virt. eigenvalues --    1.50557   1.51346   1.52343   1.54057   1.55917
 Alpha virt. eigenvalues --    1.57184   1.59733   1.60687   1.62465   1.63583
 Alpha virt. eigenvalues --    1.64333   1.66590   1.66860   1.69788   1.70557
 Alpha virt. eigenvalues --    1.71859   1.72238   1.75882   1.76503   1.77464
 Alpha virt. eigenvalues --    1.80374   1.81568   1.85819   1.86622   1.89319
 Alpha virt. eigenvalues --    1.90690   1.90818   1.95519   1.97174   1.97786
 Alpha virt. eigenvalues --    1.98558   2.01547   2.01875   2.02982   2.05533
 Alpha virt. eigenvalues --    2.06394   2.06818   2.07552   2.08134   2.09646
 Alpha virt. eigenvalues --    2.10605   2.10840   2.11873   2.12693   2.13971
 Alpha virt. eigenvalues --    2.14186   2.15467   2.17488   2.20446   2.20477
 Alpha virt. eigenvalues --    2.21798   2.23454   2.24214   2.24847   2.24990
 Alpha virt. eigenvalues --    2.26894   2.27921   2.29199   2.30662   2.31491
 Alpha virt. eigenvalues --    2.32626   2.33223   2.36817   2.37342   2.40114
 Alpha virt. eigenvalues --    2.41899   2.43249   2.43820   2.45255   2.47440
 Alpha virt. eigenvalues --    2.47894   2.48754   2.51492   2.52218   2.53261
 Alpha virt. eigenvalues --    2.56719   2.57731   2.58794   2.60405   2.62560
 Alpha virt. eigenvalues --    2.64574   2.67288   2.69902   2.72019   2.73498
 Alpha virt. eigenvalues --    2.78151   2.78848   2.80381   2.81364   2.83551
 Alpha virt. eigenvalues --    2.86844   2.87566   2.88901   2.90347   2.91732
 Alpha virt. eigenvalues --    2.92436   2.95173   2.96558   2.99017   3.02853
 Alpha virt. eigenvalues --    3.04638   3.06347   3.07802   3.10783   3.13289
 Alpha virt. eigenvalues --    3.15878   3.18486   3.22819   3.24069   3.25732
 Alpha virt. eigenvalues --    3.27452   3.29431   3.33138   3.37612   3.41065
 Alpha virt. eigenvalues --    3.43629   3.46023   3.60695   3.64215   3.76333
 Alpha virt. eigenvalues --    3.88382   4.32542   4.45564   4.47442   4.51088
 Alpha virt. eigenvalues --    4.51468   4.59893   4.68062   4.68922   4.75148
 Alpha virt. eigenvalues --    4.77979   4.78670   4.80869   4.85994   4.95527
 Alpha virt. eigenvalues --    5.02378   5.04261   5.17818   5.29848   5.30781
 Alpha virt. eigenvalues --    5.69356   6.41088
          Condensed to atoms (all electrons):
              1          2          3          4          5          6
     1  C    5.041278   0.495818  -0.033682  -0.033769  -0.035320   0.529175
     2  C    0.495818   5.042847   0.540711  -0.013862  -0.043269  -0.048165
     3  C   -0.033682   0.540711   5.114015   0.548761  -0.030970  -0.032173
     4  C   -0.033769  -0.013862   0.548761   4.665068   0.555701  -0.035762
     5  C   -0.035320  -0.043269  -0.030970   0.555701   4.935267   0.529823
     6  C    0.529175  -0.048165  -0.032173  -0.035762   0.529823   4.937717
     7  H   -0.020337   0.358760  -0.020790   0.001710   0.000062   0.002047
     8  C    0.003807  -0.058099   0.250441  -0.036065   0.005650  -0.000246
     9  H    0.002157   0.000271   0.002394  -0.032750   0.379251  -0.022039
    10  H   -0.027516   0.002553   0.000217   0.002049  -0.026067   0.381911
    11  C   -0.000021   0.000054  -0.006361  -0.032526   0.001388  -0.000017
    12  H   -0.000005  -0.000045   0.003631  -0.027669  -0.004528  -0.000004
    13  Cl   0.220734  -0.064533   0.002231   0.000324   0.002322  -0.061442
    14  N    0.000092   0.003006  -0.055828   0.230253  -0.047245   0.002244
    15  O   -0.000023   0.002841  -0.024296  -0.002090   0.000143  -0.000002
    16  O    0.000000  -0.000001   0.000568   0.001784  -0.000081   0.000000
    17  C   -0.000213   0.003407  -0.038339   0.002591  -0.000016  -0.000012
    18  C   -0.000318  -0.011453  -0.175212  -0.034151  -0.000883   0.000175
    19  C    0.000006  -0.003256  -0.036939  -0.007987  -0.000061   0.000138
    20  C    0.000001  -0.000052  -0.000475  -0.000096   0.000002   0.000001
    21  C    0.000000   0.000002   0.000034   0.000038  -0.000001  -0.000001
    22  C    0.000000   0.000005   0.000015   0.000012   0.000000   0.000000
    23  H    0.000000  -0.000001  -0.000010  -0.000004   0.000000   0.000000
    24  H    0.000000  -0.000003  -0.000016   0.000048   0.000021   0.000002
    25  H    0.000000   0.000000   0.000000   0.000000   0.000000   0.000000
    26  H    0.000000   0.000000   0.000000   0.000000   0.000000   0.000000
    27  H    0.000003   0.000011   0.000002  -0.000003  -0.000001   0.000002
    28  F    0.000700  -0.012769  -0.008434  -0.000025  -0.000001   0.000000
    29  F    0.000046  -0.000647   0.005103   0.000195  -0.000001   0.000000
    30  F    0.000000   0.000010   0.003510  -0.000031   0.000000   0.000000
              7          8          9         10         11         12
     1  C   -0.020337   0.003807   0.002157  -0.027516  -0.000021  -0.000005
     2  C    0.358760  -0.058099   0.000271   0.002553   0.000054  -0.000045
     3  C   -0.020790   0.250441   0.002394   0.000217  -0.006361   0.003631
     4  C    0.001710  -0.036065  -0.032750   0.002049  -0.032526  -0.027669
     5  C    0.000062   0.005650   0.379251  -0.026067   0.001388  -0.004528
     6  C    0.002047  -0.000246  -0.022039   0.381911  -0.000017  -0.000004
     7  H    0.370948  -0.005294   0.000007  -0.000080   0.000002   0.000002
     8  C   -0.005294   5.196822  -0.000103   0.000001  -0.006688  -0.000181
     9  H    0.000007  -0.000103   0.442445  -0.001522  -0.000004   0.002107
    10  H   -0.000080   0.000001  -0.001522   0.429772   0.000001  -0.000002
    11  C    0.000002  -0.006688  -0.000004   0.000001   3.958529  -0.016599
    12  H    0.000002  -0.000181   0.002107  -0.000002  -0.016599   0.313643
    13  Cl   0.001790  -0.000051  -0.000077   0.000879   0.000000   0.000000
    14  N   -0.000048  -0.009469  -0.001720  -0.000057   0.306342   0.315901
    15  O   -0.000036   0.139924   0.000000   0.000000   0.236268   0.001857
    16  O    0.000000  -0.000290  -0.000002   0.000000   0.587098   0.003946
    17  C    0.004754   0.459441   0.000001   0.000000   0.000665   0.000011
    18  C   -0.000534  -0.006089   0.000003   0.000001  -0.008189   0.000404
    19  C   -0.000111  -0.020820   0.000004   0.000000  -0.001907  -0.000040
    20  C   -0.000001   0.001678   0.000000   0.000000  -0.000058  -0.000002
    21  C    0.000000  -0.000011   0.000000   0.000000   0.000005  -0.000001
    22  C    0.000000  -0.000032   0.000000   0.000000   0.000000   0.000000
    23  H    0.000000  -0.000017   0.000000   0.000000   0.000000   0.000000
    24  H    0.000000  -0.000004   0.000002   0.000000  -0.000002   0.000001
    25  H    0.000000   0.000000   0.000000   0.000000   0.000000   0.000000
    26  H    0.000000   0.000000   0.000000   0.000000   0.000000   0.000000
    27  H    0.000000  -0.000002   0.000000   0.000000   0.000000   0.000000
    28  F    0.010654  -0.034774   0.000000   0.000000  -0.000008   0.000000
    29  F    0.001099  -0.062533   0.000000   0.000000  -0.000006   0.000000
    30  F    0.000141  -0.036999   0.000000   0.000000  -0.000042   0.000000
             13         14         15         16         17         18
     1  C    0.220734   0.000092  -0.000023   0.000000  -0.000213  -0.000318
     2  C   -0.064533   0.003006   0.002841  -0.000001   0.003407  -0.011453
     3  C    0.002231  -0.055828  -0.024296   0.000568  -0.038339  -0.175212
     4  C    0.000324   0.230253  -0.002090   0.001784   0.002591  -0.034151
     5  C    0.002322  -0.047245   0.000143  -0.000081  -0.000016  -0.000883
     6  C   -0.061442   0.002244  -0.000002   0.000000  -0.000012   0.000175
     7  H    0.001790  -0.000048  -0.000036   0.000000   0.004754  -0.000534
     8  C   -0.000051  -0.009469   0.139924  -0.000290   0.459441  -0.006089
     9  H   -0.000077  -0.001720   0.000000  -0.000002   0.000001   0.000003
    10  H    0.000879  -0.000057   0.000000   0.000000   0.000000   0.000001
    11  C    0.000000   0.306342   0.236268   0.587098   0.000665  -0.008189
    12  H    0.000000   0.315901   0.001857   0.003946   0.000011   0.000404
    13  Cl  16.880094   0.000002   0.000000   0.000000  -0.000036   0.000011
    14  N    0.000002   7.144463  -0.061186  -0.082514  -0.000267  -0.009603
    15  O    0.000000  -0.061186   8.666238  -0.058302  -0.012914  -0.213248
    16  O    0.000000  -0.082514  -0.058302   8.106908  -0.000027  -0.000855
    17  C   -0.000036  -0.000267  -0.012914  -0.000027   3.649385  -0.105063
    18  C    0.000011  -0.009603  -0.213248  -0.000855  -0.105063   6.037640
    19  C    0.000002   0.006512  -0.036123  -0.000048  -0.026358   0.806657
    20  C    0.000000   0.000152  -0.000191   0.000000  -0.000147  -0.110293
    21  C    0.000000  -0.000039   0.000011   0.000000  -0.000003  -0.001542
    22  C    0.000000  -0.000002  -0.000004   0.000000   0.000010  -0.002321
    23  H    0.000000   0.000001   0.000019   0.000000  -0.000013   0.000319
    24  H    0.000000   0.000177  -0.000001   0.000000   0.000000   0.000482
    25  H    0.000000   0.000000   0.000000   0.000000   0.000000   0.000105
    26  H    0.000000   0.000000   0.000000   0.000000   0.000000   0.000128
    27  H    0.000000   0.000000   0.000000   0.000000  -0.000002   0.000651
    28  F   -0.000025   0.000000   0.000330   0.000000   0.245067   0.005203
    29  F    0.000000  -0.000001   0.000799   0.000000   0.300520  -0.071395
    30  F    0.000000   0.000000  -0.000082   0.000000   0.278791   0.006013
             19         20         21         22         23         24
     1  C    0.000006   0.000001   0.000000   0.000000   0.000000   0.000000
     2  C   -0.003256  -0.000052   0.000002   0.000005  -0.000001  -0.000003
     3  C   -0.036939  -0.000475   0.000034   0.000015  -0.000010  -0.000016
     4  C   -0.007987  -0.000096   0.000038   0.000012  -0.000004   0.000048
     5  C   -0.000061   0.000002  -0.000001   0.000000   0.000000   0.000021
     6  C    0.000138   0.000001  -0.000001   0.000000   0.000000   0.000002
     7  H   -0.000111  -0.000001   0.000000   0.000000   0.000000   0.000000
     8  C   -0.020820   0.001678  -0.000011  -0.000032  -0.000017  -0.000004
     9  H    0.000004   0.000000   0.000000   0.000000   0.000000   0.000002
    10  H    0.000000   0.000000   0.000000   0.000000   0.000000   0.000000
    11  C   -0.001907  -0.000058   0.000005   0.000000   0.000000  -0.000002
    12  H   -0.000040  -0.000002  -0.000001   0.000000   0.000000   0.000001
    13  Cl   0.000002   0.000000   0.000000   0.000000   0.000000   0.000000
    14  N    0.006512   0.000152  -0.000039  -0.000002   0.000001   0.000177
    15  O   -0.036123  -0.000191   0.000011  -0.000004   0.000019  -0.000001
    16  O   -0.000048   0.000000   0.000000   0.000000   0.000000   0.000000
    17  C   -0.026358  -0.000147  -0.000003   0.000010  -0.000013   0.000000
    18  C    0.806657  -0.110293  -0.001542  -0.002321   0.000319   0.000482
    19  C    5.209697   0.348577  -0.037465  -0.037175  -0.023348  -0.000926
    20  C    0.348577   5.134978   0.254346   0.254974   0.386934  -0.022361
    21  C   -0.037465   0.254346   5.175424   0.235579  -0.021758   0.394806
    22  C   -0.037175   0.254974   0.235579   5.181040  -0.021817  -0.020064
    23  H   -0.023348   0.386934  -0.021758  -0.021817   0.463043   0.001191
    24  H   -0.000926  -0.022361   0.394806  -0.020064   0.001191   0.473970
    25  H    0.002256  -0.021316   0.391353  -0.022104  -0.002447  -0.024697
    26  H    0.002372  -0.022971  -0.020239   0.390588  -0.002360   0.001218
    27  H   -0.000446  -0.024610  -0.018062   0.394052   0.001247  -0.002890
    28  F    0.000228   0.000000   0.000000   0.000000   0.000000   0.000000
    29  F   -0.016035  -0.000001  -0.000005   0.000036   0.000014   0.000000
    30  F   -0.000433  -0.000002   0.000000   0.000000   0.000000   0.000000
             25         26         27         28         29         30
     1  C    0.000000   0.000000   0.000003   0.000700   0.000046   0.000000
     2  C    0.000000   0.000000   0.000011  -0.012769  -0.000647   0.000010
     3  C    0.000000   0.000000   0.000002  -0.008434   0.005103   0.003510
     4  C    0.000000   0.000000  -0.000003  -0.000025   0.000195  -0.000031
     5  C    0.000000   0.000000  -0.000001  -0.000001  -0.000001   0.000000
     6  C    0.000000   0.000000   0.000002   0.000000   0.000000   0.000000
     7  H    0.000000   0.000000   0.000000   0.010654   0.001099   0.000141
     8  C    0.000000   0.000000  -0.000002  -0.034774  -0.062533  -0.036999
     9  H    0.000000   0.000000   0.000000   0.000000   0.000000   0.000000
    10  H    0.000000   0.000000   0.000000   0.000000   0.000000   0.000000
    11  C    0.000000   0.000000   0.000000  -0.000008  -0.000006  -0.000042
    12  H    0.000000   0.000000   0.000000   0.000000   0.000000   0.000000
    13  Cl   0.000000   0.000000   0.000000  -0.000025   0.000000   0.000000
    14  N    0.000000   0.000000   0.000000   0.000000  -0.000001   0.000000
    15  O    0.000000   0.000000   0.000000   0.000330   0.000799  -0.000082
    16  O    0.000000   0.000000   0.000000   0.000000   0.000000   0.000000
    17  C    0.000000   0.000000  -0.000002   0.245067   0.300520   0.278791
    18  C    0.000105   0.000128   0.000651   0.005203  -0.071395   0.006013
    19  C    0.002256   0.002372  -0.000446   0.000228  -0.016035  -0.000433
    20  C   -0.021316  -0.022971  -0.024610   0.000000  -0.000001  -0.000002
    21  C    0.391353  -0.020239  -0.018062   0.000000  -0.000005   0.000000
    22  C   -0.022104   0.390588   0.394052   0.000000   0.000036   0.000000
    23  H   -0.002447  -0.002360   0.001247   0.000000   0.000014   0.000000
    24  H   -0.024697   0.001218  -0.002890   0.000000   0.000000   0.000000
    25  H    0.488791  -0.002888   0.001195   0.000000   0.000000   0.000000
    26  H   -0.002888   0.490260  -0.024701   0.000000  -0.000001   0.000000
    27  H    0.001195  -0.024701   0.475893   0.000000  -0.000002   0.000000
    28  F    0.000000   0.000000   0.000000   9.216696  -0.028621  -0.025726
    29  F    0.000000  -0.000001  -0.000002  -0.028621   9.236481  -0.027634
    30  F    0.000000   0.000000   0.000000  -0.025726  -0.027634   9.161125
 Mulliken atomic charges:
              1
     1  C   -0.142611
     2  C   -0.194142
     3  C   -0.008105
     4  C    0.248255
     5  C   -0.221186
     6  C   -0.183372
     7  H    0.295255
     8  C    0.220001
     9  H    0.229575
    10  H    0.237861
    11  C    0.982078
    12  H    0.407572
    13  Cl   0.017775
    14  N   -0.741169
    15  O   -0.639932
    16  O   -0.558186
    17  C    1.238766
    18  C   -0.106644
    19  C   -0.126972
    20  C   -0.179069
    21  C   -0.352470
    22  C   -0.352791
    23  H    0.219007
    24  H    0.199046
    25  H    0.189751
    26  H    0.188594
    27  H    0.197663
    28  F   -0.368496
    29  F   -0.337413
    30  F   -0.358641
 Sum of Mulliken atomic charges =   0.00000
 Mulliken charges with hydrogens summed into heavy atoms:
              1
     1  C   -0.142611
     2  C    0.101114
     3  C   -0.008105
     4  C    0.248255
     5  C    0.008389
     6  C    0.054488
     8  C    0.220001
    11  C    0.982078
    13  Cl   0.017775
    14  N   -0.333597
    15  O   -0.639932
    16  O   -0.558186
    17  C    1.238766
    18  C   -0.106644
    19  C   -0.126972
    20  C    0.039938
    21  C    0.036327
    22  C    0.033465
    28  F   -0.368496
    29  F   -0.337413
    30  F   -0.358641
 Sum of Mulliken charges with hydrogens summed into heavy atoms =   0.00000
 DipInt: DoE/N= T F RetVal/Mat= T F Init=T NMatP=  1 IDeriv=0 Min/MaxMlt=  0  4
 Entering OneElI...
 OneElI was handed   133926257 working-precision words.
 Multipole integrals L=0 to 4 MinM= 0 MaxM= 0.
 Requested accuracy = 0.1000D-12
 PrsmSu:  NPrtUS=   1 ThrOK=F IAlg=1 NPAlg=1 LenDen=           0.
 Prism:   IPart=     0 DynPar=F LinDyn=F Incr=          43.
 PRISM was handed   133587941 working-precision words and  4320 shell-pairs
 IPart=  0 NShTot=        4320 NBatch=          90 AvBLen=        48.0
 PrSmSu:  NxtVal=             44.
 Electronic moments (au):
       -160.00000000       -375.82910848      -1911.91581587        712.58880354
      -2556.30200659     -24974.36604089      -5315.96780195      -4709.57341374
       1349.87239855       8081.17734870     -14346.59710937    -347408.28598976
      40194.08183751     -61394.18094114     -31472.43367585       7019.11676205
     -12748.62011347     -56697.48060750     103889.02472946      19526.76774184
     -98410.04226837   -5058690.22375506    -340016.75601629    -173372.08453939
      30318.49997548    -825445.39338710    1444188.13480561      93999.28711675
     410511.66244418    -406932.90781060     -63275.04654723    -695105.68501454
     102877.45151398     289791.49521257    -170363.94277911
 Electronic spatial extent (au):  <R**2>=          32846.6358
 DipInt: DoE/N= F T RetVal/Mat= T F Init=T NMatP=  1 IDeriv=0 Min/MaxMlt=  0  4
 Nuclear    moments (au):
        160.00000000        375.45122869       1910.56017976       -712.26587402
       2468.39048799      24836.46723371       5220.81474028       4707.99010068
      -1346.02455477      -8078.70862326      13748.76463101     343017.03197038
     -38956.44696811      61203.49050667      30415.63220642      -6597.25183508
      12548.77718818      55615.07160455    -103442.12565004     -19483.91017782
      90350.81062607    4950124.21017508     322084.31334556     165946.75851152
     -28236.41602995     818593.04597137   -1429557.90756702     -92200.30222953
    -397101.82477331     391635.58793198      58952.22692056     678528.68668212
     -98104.03923744    -288624.51719835     167880.65886591
 Total      moments (au):
          0.00000000         -0.37787979         -1.35563611          0.32292951
        -87.91151860       -137.89880718        -95.15306166         -1.58331305
          3.84784377          2.46872544       -597.83247836      -4391.25401938
       1237.63486939       -190.69043448      -1056.80146943        421.86492697
       -199.84292530      -1082.40900295        446.89907942         42.85756402
      -8059.23164231    -108566.01357998     -17932.44267074      -7425.32602786
       2082.08394554      -6852.34741574      14630.22723859       1798.98488722
      13409.83767087     -15297.31987863      -4322.81962668     -16576.99833242
       4773.41227654       1166.97801422      -2483.28391320
 Traceless Quadrup. (au):
         19.07627721        -30.91101136         11.83473415         -1.58331305
          3.84784377          2.46872544
 Charge=              0.0000 electrons
 Dipole moment (field-independent basis, Debye):
    X=             -0.9605    Y=             -3.4457    Z=              0.8208  Tot=              3.6700
 Quadrupole moment (field-independent basis, Debye-Ang):
   XX=           -118.2440   YY=           -185.4786   ZZ=           -127.9841
   XY=             -2.1296   XZ=              5.1755   YZ=              3.3205
 Traceless Quadrupole moment (field-independent basis, Debye-Ang):
   XX=             25.6582   YY=            -41.5764   ZZ=             15.9181
   XY=             -2.1296   XZ=              5.1755   YZ=              3.3205
 Octapole moment (field-independent basis, Debye-Ang**2):
  XXX=           -425.5141  YYY=          -3125.5252  ZZZ=            880.9008  XYY=           -135.7261
  XXY=           -752.1905  XXZ=            300.2672  XZZ=           -142.2405  YZZ=           -770.4170
  YYZ=            318.0855  XYZ=             30.5044
 Hexadecapole moment (field-independent basis, Debye-Ang**3):
 XXXX=          -3035.4929 YYYY=         -40891.1639 ZZZZ=          -6754.2174 XXXY=          -2796.7337
 XXXZ=            784.2126 YYYX=          -2580.9224 YYYZ=           5510.4448 ZZZX=            677.5839
 ZZZY=           5050.7876 XXYY=          -5761.7038 XXZZ=          -1628.1810 YYZZ=          -6243.6921
 XXYZ=           1797.8958 YYXZ=            439.5398 ZZXY=           -935.3237
 N-N= 1.873510146210D+03 E-N=-7.280305471755D+03  KE= 1.494419185569D+03
 Entering OneElI...
 OneElI was handed   133698032 working-precision words.
 Calculate electrostatic properties
    NBasis =   337  MinDer = 0  MaxDer = 0
    NGrid  =    30  NMatD  =   1
 Requested accuracy = 0.1000D-12
 PrsmSu:  NPrtUS=   2 ThrOK=T IAlg=1 NPAlg=1 LenDen=           0.
 Prism:   IPart=     0 DynPar=F LinDyn=F Incr=         512.
 PRISM was handed    66638413 working-precision words and  3844 shell-pairs
 PRISM was handed    66638413 working-precision words and  3844 shell-pairs
 IPart=  1 NShTot=       57240 NBatch=        1908 AvBLen=        30.0
 IPart=  0 NShTot=       58080 NBatch=        1936 AvBLen=        30.0
 PrSmSu:  NxtVal=           1025.
 --------------------------------------------------------
       Center         ----      EFG at Nuclei      ----
                      3XX-RR        3YY-RR        3ZZ-RR
 --------------------------------------------------------
     1   Atom        0.127263     -0.021959     -0.105304
     2   Atom       -0.023634      0.049856     -0.026222
     3   Atom       -0.065628      0.036195      0.029433
     4   Atom        0.065824      0.043514     -0.109337
     5   Atom       -0.052908      0.052923     -0.000015
     6   Atom       -0.065644      0.095354     -0.029710
     7   Atom       -0.071865      0.130632     -0.058767
     8   Atom        0.113678     -0.129993      0.016315
     9   Atom       -0.081711      0.145129     -0.063418
    10   Atom        0.036486     -0.201813      0.165326
    11   Atom       -0.089425      0.379439     -0.290014
    12   Atom       -0.396499      0.181074      0.215425
    13   Atom        1.639369     -0.900961     -0.738408
    14   Atom        0.057778     -0.516958      0.459180
    15   Atom       -0.125016      0.466970     -0.341954
    16   Atom        0.090387      0.111125     -0.201513
    17   Atom        0.219623     -0.153776     -0.065848
    18   Atom        0.038261     -0.075295      0.037034
    19   Atom       -0.096806     -0.047937      0.144743
    20   Atom        0.066734      0.007184     -0.073918
    21   Atom        0.017272      0.031293     -0.048565
    22   Atom        0.037731     -0.105830      0.068099
    23   Atom       -0.042065     -0.089196      0.131260
    24   Atom       -0.301055      0.141815      0.159240
    25   Atom        0.124028      0.165280     -0.289308
    26   Atom       -0.261621      0.143711      0.117910
    27   Atom        0.118298     -0.050071     -0.068226
    28   Atom        1.293956      1.013846     -2.307802
    29   Atom       -0.849052     -0.156248      1.005300
    30   Atom        1.060721     -2.537581      1.476860
 --------------------------------------------------------
                        XY            XZ            YZ
 --------------------------------------------------------
     1   Atom        0.221664     -0.105159     -0.191212
     2   Atom        0.100659     -0.209861      0.049000
     3   Atom        0.014479     -0.182885      0.099658
     4   Atom        0.177051     -0.114667     -0.072829
     5   Atom        0.102968     -0.165925      0.121684
     6   Atom        0.128810     -0.173265      0.122162
     7   Atom       -0.066357      0.234748      0.037185
     8   Atom        0.247939      0.076416     -0.090435
     9   Atom       -0.063401      0.254162      0.046297
    10   Atom       -0.224846      0.010311     -0.007597
    11   Atom       -0.116562     -0.213033      0.043683
    12   Atom        0.001041      0.113673     -0.015960
    13   Atom        0.858248      0.759559     -2.698609
    14   Atom       -0.298916      0.603593     -0.260104
    15   Atom       -0.365961      1.532095     -1.406009
    16   Atom        1.203739     -0.777539     -0.747503
    17   Atom       -0.002234     -0.217629     -0.004229
    18   Atom        0.011252      0.034339     -0.086057
    19   Atom       -0.104963      0.079316      0.024636
    20   Atom        0.022859     -0.116749      0.158308
    21   Atom        0.008944      0.128766      0.023338
    22   Atom        0.091016      0.052462     -0.010284
    23   Atom       -0.234213     -0.093978     -0.081151
    24   Atom       -0.143189     -0.033176     -0.011824
    25   Atom       -0.028190     -0.127759     -0.079069
    26   Atom        0.101218     -0.159262      0.026368
    27   Atom       -0.096147     -0.113610     -0.237708
    28   Atom       -0.280832     -0.993772     -1.165779
    29   Atom        1.870328     -1.404070      1.080561
    30   Atom       -1.441906      0.009536      0.104037
 --------------------------------------------------------


 ---------------------------------------------------------------------------------
              Nuclear Quadrupole in Principal Axis System
 ---------------------------------------------------------------------------------

       Atom             a.u.   MegaHertz   Gauss  10(-4) cm-1        Axes

              Baa    -0.2720   -36.497   -13.023   -12.174 -0.2143  0.7061  0.6749
     1 C(13)  Bbb    -0.0989   -13.268    -4.734    -4.426  0.6751 -0.3923  0.6248
              Bcc     0.3708    49.764    17.757    16.600  0.7059  0.5895 -0.3926
 
              Baa    -0.2701   -36.239   -12.931   -12.088  0.6867 -0.3163  0.6546
     2 C(13)  Bbb     0.0738     9.908     3.536     3.305  0.0056  0.9026  0.4304
              Bcc     0.1962    26.330     9.395     8.783  0.7270  0.2919 -0.6216
 
              Baa    -0.2279   -30.580   -10.912   -10.200  0.7297 -0.2761  0.6255
     3 C(13)  Bbb     0.0252     3.377     1.205     1.127  0.4690  0.8678 -0.1642
              Bcc     0.2027    27.203     9.707     9.074 -0.4975  0.4132  0.7627
 
              Baa    -0.1681   -22.553    -8.048    -7.523  0.5249 -0.1509  0.8377
     4 C(13)  Bbb    -0.1101   -14.780    -5.274    -4.930 -0.4799  0.7604  0.4377
              Bcc     0.2782    37.333    13.321    12.453  0.7030  0.6317 -0.3267
 
              Baa    -0.2712   -36.394   -12.986   -12.140  0.6657 -0.4382  0.6039
     5 C(13)  Bbb     0.1116    14.980     5.345     4.997  0.6705  0.7065 -0.2265
              Bcc     0.1596    21.413     7.641     7.143 -0.3274  0.5558  0.7642
 
              Baa    -0.3013   -40.430   -14.426   -13.486  0.6750 -0.4085  0.6144
     6 C(13)  Bbb     0.1262    16.933     6.042     5.648 -0.6956 -0.0747  0.7146
              Bcc     0.1751    23.497     8.384     7.838  0.2460  0.9097  0.3345
 
              Baa    -0.3124  -166.666   -59.471   -55.594  0.7118  0.1640 -0.6829
     7 H(1)   Bbb     0.1327    70.792    25.260    23.614  0.2176  0.8730  0.4364
              Bcc     0.1797    95.874    34.210    31.980  0.6678 -0.4592  0.5858
 
              Baa    -0.3247   -43.575   -15.549   -14.535 -0.5078  0.7977  0.3253
     8 C(13)  Bbb     0.0553     7.427     2.650     2.478  0.1077 -0.3159  0.9427
              Bcc     0.2694    36.147    12.898    12.057  0.8547  0.5138  0.0745
 
              Baa    -0.3394  -181.078   -64.613   -60.401  0.7129  0.1586 -0.6831
     9 H(1)   Bbb     0.1536    81.978    29.252    27.345  0.1365  0.9241  0.3569
              Bcc     0.1857    99.100    35.361    33.056  0.6879 -0.3476  0.6371
 
              Baa    -0.3371  -179.877   -64.185   -60.000  0.5156  0.8568  0.0024
    10 H(1)   Bbb     0.1554    82.919    29.588    27.659 -0.5271  0.3150  0.7893
              Bcc     0.1817    96.958    34.597    32.342  0.6756 -0.4082  0.6140
 
              Baa    -0.4260   -57.169   -20.399   -19.069  0.5426  0.0330  0.8393
    11 C(13)  Bbb     0.0061     0.825     0.294     0.275  0.7931  0.3091 -0.5249
              Bcc     0.4199    56.344    20.105    18.794 -0.2767  0.9505  0.1415
 
              Baa    -0.4170  -222.469   -79.382   -74.208  0.9842 -0.0064 -0.1771
    12 H(1)   Bbb     0.1770    94.441    33.699    31.502  0.0513  0.9669  0.2499
              Bcc     0.2400   128.028    45.683    42.705  0.1696 -0.2550  0.9519
 
              Baa    -3.7622  -196.905   -70.261   -65.680 -0.2074  0.7034  0.6799
    13 Cl(35) Bbb     1.8297    95.761    34.170    31.942  0.6852 -0.3916  0.6142
              Bcc     1.9325   101.144    36.091    33.738  0.6983  0.5932 -0.4007
 
              Baa    -0.6442   -24.847    -8.866    -8.288  0.3882  0.9216  0.0049
    14 N(14)  Bbb    -0.3493   -13.470    -4.806    -4.493  0.7163 -0.2984 -0.6308
              Bcc     0.9935    38.317    13.673    12.781  0.5799 -0.2484  0.7759
 
              Baa    -2.0612   149.146    53.219    49.750 -0.5405  0.3478  0.7661
    15 O(17)  Bbb    -0.1723    12.471     4.450     4.160  0.6774  0.7199  0.1510
              Bcc     2.2335  -161.617   -57.669   -53.910  0.4990 -0.6006  0.6247
 
              Baa    -1.1046    79.930    28.521    26.662  0.7279 -0.6829  0.0614
    16 O(17)  Bbb    -0.7621    55.147    19.678    18.395  0.2772  0.3750  0.8846
              Bcc     1.8667  -135.076   -48.199   -45.057  0.6271  0.6269 -0.4623
 
              Baa    -0.1841   -24.708    -8.816    -8.242  0.4694  0.1556  0.8692
    17 C(13)  Bbb    -0.1530   -20.534    -7.327    -6.849 -0.0740  0.9878 -0.1369
              Bcc     0.3371    45.242    16.144    15.091  0.8799  0.0001 -0.4752
 
              Baa    -0.1262   -16.929    -6.041    -5.647 -0.1604  0.8588  0.4866
    18 C(13)  Bbb     0.0310     4.165     1.486     1.389  0.8935  0.3358 -0.2980
              Bcc     0.0951    12.765     4.555     4.258  0.4193 -0.3870  0.8212
 
              Baa    -0.1978   -26.549    -9.473    -8.856  0.7810  0.5835 -0.2228
    19 C(13)  Bbb     0.0291     3.911     1.396     1.305 -0.5481  0.8113  0.2032
              Bcc     0.1687    22.637     8.078     7.551  0.2993 -0.0366  0.9535
 
              Baa    -0.2352   -31.558   -11.261   -10.527  0.3394 -0.5366  0.7726
    20 C(13)  Bbb     0.0654     8.781     3.133     2.929  0.7351  0.6637  0.1381
              Bcc     0.1697    22.776     8.127     7.597 -0.5869  0.5211  0.6198
 
              Baa    -0.1495   -20.060    -7.158    -6.691 -0.6071 -0.0721  0.7913
    21 C(13)  Bbb     0.0272     3.647     1.301     1.216 -0.2258  0.9705 -0.0848
              Bcc     0.1223    16.414     5.857     5.475  0.7618  0.2301  0.6055
 
              Baa    -0.1548   -20.768    -7.411    -6.928 -0.4554  0.8780  0.1477
    22 C(13)  Bbb     0.0349     4.678     1.669     1.561 -0.5445 -0.4059  0.7340
              Bcc     0.1199    16.090     5.741     5.367  0.7044  0.2538  0.6629
 
              Baa    -0.3337  -178.054   -63.534   -59.393  0.6541  0.7116  0.2564
    23 H(1)   Bbb     0.1518    81.000    28.903    27.019  0.3343 -0.5760  0.7460
              Bcc     0.1819    97.054    34.631    32.374  0.6785 -0.4022 -0.6146
 
              Baa    -0.3458  -184.485   -65.829   -61.537  0.9567  0.2826  0.0695
    24 H(1)   Bbb     0.1615    86.180    30.751    28.747 -0.0907  0.0628  0.9939
              Bcc     0.1842    98.305    35.078    32.791 -0.2766  0.9572 -0.0857
 
              Baa    -0.3395  -181.146   -64.638   -60.424  0.2714  0.1637  0.9484
    25 H(1)   Bbb     0.1589    84.770    30.248    28.276  0.9172  0.2547 -0.3064
              Bcc     0.1806    96.377    34.390    32.148 -0.2917  0.9531 -0.0811
 
              Baa    -0.3419  -182.439   -65.099   -60.855  0.9201 -0.2097  0.3307
    26 H(1)   Bbb     0.1602    85.450    30.491    28.503 -0.0084  0.8337  0.5522
              Bcc     0.1818    96.989    34.608    32.352 -0.3915 -0.5108  0.7653
 
              Baa    -0.3447  -183.913   -65.625   -61.347  0.3056  0.6563  0.6899
    27 H(1)   Bbb     0.1613    86.038    30.701    28.699  0.8447 -0.5212  0.1217
              Bcc     0.1834    97.875    34.924    32.648 -0.4394 -0.5455  0.7136
 
              Baa    -2.9285 -1470.746  -524.799  -490.588  0.2375  0.2910  0.9268
    28 F(19)  Bbb     1.3766   691.372   246.699   230.617 -0.1725  0.9516 -0.2546
              Bcc     1.5518   779.374   278.100   259.971  0.9560  0.0994 -0.2762
 
              Baa    -3.1579 -1585.968  -565.913  -529.022  0.7111 -0.5840  0.3914
    29 F(19)  Bbb     1.3893   697.736   248.970   232.740  0.5770  0.8029  0.1498
              Bcc     1.7686   888.231   316.943   296.282 -0.4017  0.1193  0.9079
 
              Baa    -3.0464 -1529.957  -545.927  -510.339  0.3312  0.9433 -0.0224
    30 F(19)  Bbb     1.4723   739.423   263.844   246.645  0.2517 -0.0655  0.9656
              Bcc     1.5741   790.534   282.082   263.694  0.9094 -0.3255 -0.2591
 

 ---------------------------------------------------------------------------------

 No NMR shielding tensors so no spin-rotation constants.
 Leave Link  601 at Tue Dec 01 16:42:44 2015, MaxMem=  134217728 cpu:       1.0
 Merz-Kollman atomic radii used.
 Atom Element Radius
    1     6    1.50
    2     6    1.50
    3     6    1.50
    4     6    1.50
    5     6    1.50
    6     6    1.50
    7     1    1.20
    8     6    1.50
    9     1    1.20
   10     1    1.20
   11     6    1.50
   12     1    1.20
   13    17    1.70
   14     7    1.50
   15     8    1.40
   16     8    1.40
   17     6    1.50
   18     6    1.50
   19     6    1.50
   20     6    1.50
   21     6    1.50
   22     6    1.50
   23     1    1.20
   24     1    1.20
   25     1    1.20
   26     1    1.20
   27     1    1.20
   28     9    1.35
   29     9    1.35
   30     9    1.35
 Generate VDW surfaces: Layer= 4 Dens= 6 Start= 1.400 Inc= 0.200

 **********************************************************************

            Electrostatic Properties Using The SCF Density

 **********************************************************************

       Atomic Center    1 is at   0.095439  4.179752 -3.809646
       Atomic Center    2 is at   0.801758  5.389033 -3.808847
       Atomic Center    3 is at   0.513050  6.374324 -2.852491
       Atomic Center    4 is at  -0.458561  6.133916 -1.875805
       Atomic Center    5 is at  -1.180314  4.931594 -1.889055
       Atomic Center    6 is at  -0.902483  3.954532 -2.854723
       Atomic Center    7 is at   1.562335  5.563147 -4.542291
       Atomic Center    8 is at   1.199564  7.592770 -2.903260
       Atomic Center    9 is at  -1.941823  4.757846 -1.159914
       Atomic Center   10 is at  -1.450815  3.037171 -2.860786
       Atomic Center   11 is at  -0.303459  8.463358 -1.244855
       Atomic Center   12 is at  -1.731981  7.127359 -0.662798
       Atomic Center   13 is at   0.463338  2.945336 -5.009489
       Atomic Center   14 is at  -0.745894  7.123822 -0.830615
       Atomic Center   15 is at   0.909323  8.656340 -1.987234
       Atomic Center   16 is at  -0.997878  9.464705 -0.924868
       Atomic Center   17 is at   2.468362  7.666049 -3.775230
       Atomic Center   18 is at   2.065385  7.128621 -1.716848
       Atomic Center   19 is at   2.738393  6.768312 -0.794966
       Atomic Center   20 is at   3.609198  6.310653  0.392278
       Atomic Center   21 is at   2.956525  5.505066  1.529824
       Atomic Center   22 is at   3.983318  4.831752  0.589722
       Atomic Center   23 is at   4.301319  7.086044  0.654901
       Atomic Center   24 is at   1.934207  5.202299  1.469889
       Atomic Center   25 is at   3.233060  5.672042  2.551521
       Atomic Center   26 is at   4.969248  4.594993  0.932507
       Atomic Center   27 is at   3.670488  4.125560 -0.148443
       Atomic Center   28 is at   2.175755  7.265758 -5.030054
       Atomic Center   29 is at   3.420838  6.860414 -3.256699
       Atomic Center   30 is at   2.922308  8.937630 -3.801425
      ESP Fit Center   31 is at   1.262136  4.179752 -2.063560
      ESP Fit Center   32 is at   1.183352  3.758292 -2.063560
      ESP Fit Center   33 is at   1.067857  3.057521 -2.324722
      ESP Fit Center   34 is at   1.344636  3.376941 -2.324722
      ESP Fit Center   35 is at   1.520213  3.761400 -2.324722
      ESP Fit Center   36 is at   0.714609  2.547133 -2.642949
      ESP Fit Center   37 is at   1.087329  2.742751 -2.642949
      ESP Fit Center   38 is at   1.402403  3.021882 -2.642949
      ESP Fit Center   39 is at   1.641521  3.368305 -2.642949
      ESP Fit Center   40 is at   1.790787  3.761886 -2.642949
      ESP Fit Center   41 is at   1.856268  3.365105 -3.006011
      ESP Fit Center   42 is at   1.990226  3.762678 -3.006011
      ESP Fit Center   43 is at   2.112926  3.765147 -3.399956
      ESP Fit Center   44 is at  -1.467337  5.521351 -4.219336
      ESP Fit Center   45 is at  -1.313099  5.513990 -4.613281
      ESP Fit Center   46 is at  -1.566990  5.180002 -4.613281
      ESP Fit Center   47 is at  -1.743148  4.799244 -4.613281
      ESP Fit Center   48 is at  -1.211526  5.337621 -4.976343
      ESP Fit Center   49 is at  -1.450644  4.991199 -4.976343
      ESP Fit Center   50 is at  -1.599910  4.597618 -4.976343
      ESP Fit Center   51 is at  -1.650648  4.179752 -4.976343
      ESP Fit Center   52 is at  -0.876980  5.301983 -5.294570
      ESP Fit Center   53 is at  -1.153759  4.982562 -5.294570
      ESP Fit Center   54 is at  -1.329336  4.598103 -5.294570
      ESP Fit Center   55 is at  -0.607654  5.110796 -5.555732
      ESP Fit Center   56 is at   1.321800  4.344649 -2.062761
      ESP Fit Center   57 is at   1.663958  4.603034 -2.062761
      ESP Fit Center   58 is at   1.889671  4.967574 -2.062761
      ESP Fit Center   59 is at   1.774176  4.266803 -2.323923
      ESP Fit Center   60 is at   2.050956  4.586223 -2.323923
      ESP Fit Center   61 is at   2.226532  4.970682 -2.323923
      ESP Fit Center   62 is at   2.108722  4.231164 -2.642149
      ESP Fit Center   63 is at   2.347840  4.577587 -2.642149
      ESP Fit Center   64 is at   2.497106  4.971168 -2.642149
      ESP Fit Center   65 is at   2.057782  3.910327 -3.005212
      ESP Fit Center   66 is at   2.346295  4.214906 -3.005212
      ESP Fit Center   67 is at   2.562588  4.574387 -3.005212
      ESP Fit Center   68 is at   2.696545  4.971959 -3.005212
      ESP Fit Center   69 is at   2.220788  3.896215 -3.399157
      ESP Fit Center   70 is at   2.492242  4.212421 -3.399157
      ESP Fit Center   71 is at   2.694488  4.576799 -3.399157
      ESP Fit Center   72 is at   2.819246  4.974429 -3.399157
      ESP Fit Center   73 is at   2.286682  3.904109 -3.808847
      ESP Fit Center   74 is at   2.547844  4.222336 -3.808847
      ESP Fit Center   75 is at   2.741905  4.585398 -3.808847
      ESP Fit Center   76 is at  -1.163434  6.005616 -4.218536
      ESP Fit Center   77 is at  -0.606780  6.723271 -4.612482
      ESP Fit Center   78 is at  -0.860671  6.389284 -4.612482
      ESP Fit Center   79 is at  -1.036829  6.008525 -4.612482
      ESP Fit Center   80 is at   0.182587  7.021652 -4.975544
      ESP Fit Center   81 is at  -0.190132  6.826034 -4.975544
      ESP Fit Center   82 is at  -0.505207  6.546903 -4.975544
      ESP Fit Center   83 is at  -0.744325  6.200480 -4.975544
      ESP Fit Center   84 is at  -0.893590  5.806899 -4.975544
      ESP Fit Center   85 is at   0.184898  6.739768 -5.293771
      ESP Fit Center   86 is at  -0.170661  6.511264 -5.293771
      ESP Fit Center   87 is at  -0.447440  6.191844 -5.293771
      ESP Fit Center   88 is at  -0.623017  5.807385 -5.293771
      ESP Fit Center   89 is at   0.482476  6.511193 -5.554933
      ESP Fit Center   90 is at   0.098665  6.320078 -5.554933
      ESP Fit Center   91 is at  -0.190188  6.003220 -5.554933
      ESP Fit Center   92 is at  -0.345074  5.603414 -5.554933
      ESP Fit Center   93 is at   0.399940  6.085002 -5.748994
      ESP Fit Center   94 is at   0.105789  5.790851 -5.748994
      ESP Fit Center   95 is at  -0.001877  5.389033 -5.748994
      ESP Fit Center   96 is at   0.392068  5.389033 -5.868496
      ESP Fit Center   97 is at   1.132221  4.741705 -1.685794
      ESP Fit Center   98 is at   1.504940  4.937323 -1.685794
      ESP Fit Center   99 is at  -1.049726  7.715923 -3.262181
      ESP Fit Center  100 is at  -0.895488  7.708562 -3.656127
      ESP Fit Center  101 is at  -1.149379  7.374574 -3.656127
      ESP Fit Center  102 is at  -1.325537  6.993816 -3.656127
      ESP Fit Center  103 is at  -0.793914  7.532193 -4.019189
      ESP Fit Center  104 is at  -1.033033  7.185771 -4.019189
      ESP Fit Center  105 is at  -1.182298  6.792190 -4.019189
      ESP Fit Center  106 is at  -1.233036  6.374324 -4.019189
      ESP Fit Center  107 is at  -0.459369  7.496555 -4.337416
      ESP Fit Center  108 is at  -0.736148  7.177135 -4.337416
      ESP Fit Center  109 is at  -0.911725  6.792676 -4.337416
      ESP Fit Center  110 is at  -0.190042  7.305369 -4.598577
      ESP Fit Center  111 is at  -0.478896  6.988511 -4.598577
      ESP Fit Center  112 is at   0.061481  5.089532 -0.129718
      ESP Fit Center  113 is at   0.403639  5.347917 -0.129718
      ESP Fit Center  114 is at   0.513857  5.011685 -0.390880
      ESP Fit Center  115 is at   0.790637  5.331106 -0.390880
      ESP Fit Center  116 is at   0.966213  5.715565 -0.390880
      ESP Fit Center  117 is at   0.848403  4.976047 -0.709107
      ESP Fit Center  118 is at   1.087521  5.322470 -0.709107
      ESP Fit Center  119 is at   0.797463  4.655210 -1.072169
      ESP Fit Center  120 is at   1.085976  4.959789 -1.072169
      ESP Fit Center  121 is at   0.960469  4.641098 -1.466115
      ESP Fit Center  122 is at   1.231924  4.957304 -1.466115
      ESP Fit Center  123 is at  -2.423753  6.750499 -2.285494
      ESP Fit Center  124 is at  -1.867099  7.468154 -2.679440
      ESP Fit Center  125 is at  -2.120990  7.134167 -2.679440
      ESP Fit Center  126 is at  -2.297148  6.753408 -2.679440
      ESP Fit Center  127 is at  -1.450451  7.570917 -3.042502
      ESP Fit Center  128 is at  -1.765525  7.291786 -3.042502
      ESP Fit Center  129 is at  -2.004644  6.945363 -3.042502
      ESP Fit Center  130 is at  -2.153909  6.551782 -3.042502
      ESP Fit Center  131 is at  -1.430980  7.256147 -3.360729
      ESP Fit Center  132 is at  -1.707759  6.936727 -3.360729
      ESP Fit Center  133 is at  -1.883336  6.552268 -3.360729
      ESP Fit Center  134 is at  -1.450507  6.748103 -3.621891
      ESP Fit Center  135 is at  -1.605393  6.348296 -3.621891
      ESP Fit Center  136 is at  -0.770625  4.931594  0.170594
      ESP Fit Center  137 is at  -0.975470  5.286396  0.170594
      ESP Fit Center  138 is at  -0.376679  4.931594  0.051092
      ESP Fit Center  139 is at  -0.778497  4.235626  0.051092
      ESP Fit Center  140 is at  -0.484346  4.529777  0.051092
      ESP Fit Center  141 is at  -0.013617  4.931594 -0.142969
      ESP Fit Center  142 is at  -0.660273  3.887209 -0.142969
      ESP Fit Center  143 is at  -0.318115  4.145595 -0.142969
      ESP Fit Center  144 is at  -0.092401  4.510134 -0.142969
      ESP Fit Center  145 is at  -0.968988  3.461784 -0.404131
      ESP Fit Center  146 is at  -0.563455  3.580860 -0.404131
      ESP Fit Center  147 is at  -0.207896  3.809363 -0.404131
      ESP Fit Center  148 is at   0.068883  4.128783 -0.404131
      ESP Fit Center  149 is at   0.244460  4.513243 -0.404131
      ESP Fit Center  150 is at  -1.390782  3.198239 -0.722358
      ESP Fit Center  151 is at  -0.969847  3.198239 -0.722358
      ESP Fit Center  152 is at  -0.561144  3.298975 -0.722358
      ESP Fit Center  153 is at  -0.188424  3.494593 -0.722358
      ESP Fit Center  154 is at   0.126650  3.773725 -0.722358
      ESP Fit Center  155 is at   0.365768  4.120147 -0.722358
      ESP Fit Center  156 is at   0.515034  4.513728 -0.722358
      ESP Fit Center  157 is at   0.364223  3.757467 -1.085420
      ESP Fit Center  158 is at   0.580515  4.116948 -1.085420
[...]
 8853 Fit       0.014205
 8854 Fit       0.015524
 8855 Fit       0.012011
 8856 Fit       0.013086
 8857 Fit       0.013983
 8858 Fit       0.014893
 8859 Fit       0.016066
 8860 Fit       0.017722
 8861 Fit       0.010286
 8862 Fit       0.011341
 8863 Fit       0.012296
 8864 Fit       0.013157
 8865 Fit       0.013790
 8866 Fit       0.014463
 8867 Fit       0.015307
 8868 Fit       0.016490
 8869 Fit       0.018192
 8870 Fit       0.009758
 8871 Fit       0.010804
 8872 Fit       0.011705
 8873 Fit       0.012481
 8874 Fit       0.013158
 8875 Fit       0.013561
 8876 Fit       0.014069
 8877 Fit       0.014701
 8878 Fit       0.015605
 8879 Fit       0.016966
 8880 Fit       0.018970
 8881 Fit       0.009272
 8882 Fit       0.010296
 8883 Fit       0.011169
 8884 Fit       0.011910
 8885 Fit       0.012537
 8886 Fit       0.013074
 8887 Fit       0.013254
 8888 Fit       0.013617
 8889 Fit       0.014066
 8890 Fit       0.014723
 8891 Fit       0.015760
 8892 Fit       0.017409
 8893 Fit       0.009945
 8894 Fit       0.010742
 8895 Fit       0.011427
 8896 Fit       0.012007
 8897 Fit       0.012491
 8898 Fit       0.012897
 8899 Fit       0.012840
 8900 Fit       0.013092
 8901 Fit       0.013411
 8902 Fit       0.013913
 8903 Fit       0.014778
 8904 Fit       0.016286
 8905 Fit       0.009419
 8906 Fit       0.010173
 8907 Fit       0.010834
 8908 Fit       0.011403
 8909 Fit       0.011881
 8910 Fit       0.012270
 8911 Fit       0.012581
 8912 Fit       0.012298
 8913 Fit       0.012439
 8914 Fit       0.012624
 8915 Fit       0.012954
 8916 Fit       0.013591
 8917 Fit       0.014808
 8918 Fit       0.009755
 8919 Fit       0.010320
 8920 Fit       0.010829
 8921 Fit       0.011272
 8922 Fit       0.011638
 8923 Fit       0.011925
 8924 Fit       0.012139
 8925 Fit       0.011619
 8926 Fit       0.011653
 8927 Fit       0.011708
 8928 Fit       0.011873
 8929 Fit       0.012291
 8930 Fit       0.013212
 8931 Fit       0.009896
 8932 Fit       0.010283
 8933 Fit       0.010651
 8934 Fit       0.010977
 8935 Fit       0.011241
 8936 Fit       0.011435
 8937 Fit       0.011556
 8938 Fit       0.010803
 8939 Fit       0.010721
 8940 Fit       0.010640
 8941 Fit       0.010640
 8942 Fit       0.010861
 8943 Fit       0.010092
 8944 Fit       0.010314
 8945 Fit       0.010529
 8946 Fit       0.010700
 8947 Fit       0.010807
 8948 Fit       0.010839
 8949 Fit       0.009856
 8950 Fit       0.009637
 8951 Fit       0.009390
 8952 Fit       0.009184
 8953 Fit       0.009141
 8954 Fit       0.009954
 8955 Fit       0.010017
 8956 Fit       0.010073
 8957 Fit       0.010077
 8958 Fit       0.010007
 8959 Fit       0.008795
 8960 Fit       0.008419
 8961 Fit       0.007972
 8962 Fit       0.007500
 8963 Fit       0.009508
 8964 Fit       0.009402
 8965 Fit       0.009275
 8966 Fit       0.009080
 8967 Fit       0.007649
 8968 Fit       0.007053
 8969 Fit       0.008471
 8970 Fit       0.008112
 8971 Fit       0.008612
 8972 Fit       0.008304
 8973 Fit       0.008195
 8974 Fit       0.010754
 8975 Fit       0.009894
 8976 Fit       0.009350
 8977 Fit       0.009024
 8978 Fit       0.008851
 8979 Fit       0.008791
 8980 Fit       0.008824
 8981 Fit       0.008957
 8982 Fit       0.010863
 8983 Fit       0.010255
 8984 Fit       0.009811
 8985 Fit       0.009508
 8986 Fit       0.009317
 8987 Fit       0.009208
 8988 Fit       0.009158
 8989 Fit       0.009159
 8990 Fit       0.009212
 8991 Fit       0.009336
 8992 Fit       0.010015
 8993 Fit       0.010049
 8994 Fit       0.009899
 8995 Fit       0.009713
 8996 Fit       0.009557
 8997 Fit       0.009448
 8998 Fit       0.009379
 8999 Fit       0.009335
 9000 Fit       0.009304
 9001 Fit       0.009283
 9002 Fit       0.009280
 9003 Fit       0.009311
 9004 Fit       0.008305
 9005 Fit       0.008932
 9006 Fit       0.009180
 9007 Fit       0.009262
 9008 Fit       0.009291
 9009 Fit       0.009307
 9010 Fit       0.009312
 9011 Fit       0.009294
 9012 Fit       0.009245
 9013 Fit       0.009165
 9014 Fit       0.009057
 9015 Fit       0.008929
 9016 Fit       0.007077
 9017 Fit       0.008048
 9018 Fit       0.008540
 9019 Fit       0.008798
 9020 Fit       0.008956
 9021 Fit       0.009057
 9022 Fit       0.009101
 9023 Fit       0.009075
 9024 Fit       0.008973
 9025 Fit       0.008793
 9026 Fit       0.008533
 9027 Fit       0.008182
 9028 Fit       0.006613
 9029 Fit       0.007635
 9030 Fit       0.008166
 9031 Fit       0.008471
 9032 Fit       0.008661
 9033 Fit       0.008750
 9034 Fit       0.008720
 9035 Fit       0.008558
 9036 Fit       0.008256
 9037 Fit       0.007800
 9038 Fit       0.007162
 9039 Fit       0.006694
 9040 Fit       0.007528
 9041 Fit       0.007957
 9042 Fit       0.008198
 9043 Fit       0.008297
 9044 Fit       0.008231
 9045 Fit       0.007971
 9046 Fit       0.007498
 9047 Fit       0.006784
 9048 Fit       0.005785
 9049 Fit       0.004026
 9050 Fit       0.007286
 9051 Fit       0.007645
 9052 Fit       0.007765
 9053 Fit       0.007662
 9054 Fit       0.007283
 9055 Fit       0.006582
 9056 Fit       0.005513
 9057 Fit       0.003838
 9058 Fit       0.001627
 9059 Fit       0.006571
 9060 Fit       0.007071
 9061 Fit       0.007039
 9062 Fit       0.006540
 9063 Fit       0.005492
 9064 Fit       0.003907
 9065 Fit       0.001808
 9066 Fit       0.004749
 9067 Fit       0.006024
 9068 Fit       0.005604
 9069 Fit       0.004252
 9070 Fit      -0.020773
 9071 Fit      -0.020870
 9072 Fit      -0.020508
 9073 Fit      -0.019351
 9074 Fit      -0.018358
 9075 Fit      -0.018386
 9076 Fit      -0.018109
 9077 Fit      -0.017346
 9078 Fit      -0.015975
 9079 Fit      -0.013974
 9080 Fit      -0.011461
 9081 Fit      -0.008696
 9082 Fit      -0.006038
 9083 Fit      -0.003866
 9084 Fit      -0.002500
 9085 Fit      -0.016224
 9086 Fit      -0.016451
 9087 Fit      -0.016564
 9088 Fit      -0.016465
 9089 Fit      -0.016047
 9090 Fit      -0.015221
 9091 Fit      -0.013952
 9092 Fit      -0.012280
 9093 Fit      -0.010338
 9094 Fit      -0.008336
 9095 Fit      -0.006523
 9096 Fit      -0.005135
 9097 Fit      -0.004333
 9098 Fit      -0.014511
 9099 Fit      -0.014893
 9100 Fit      -0.015094
 9101 Fit      -0.015077
 9102 Fit      -0.014786
 9103 Fit      -0.014174
 9104 Fit      -0.013222
 9105 Fit      -0.011965
 9106 Fit      -0.010499
 9107 Fit      -0.008974
 9108 Fit      -0.007568
 9109 Fit      -0.006446
 9110 Fit      -0.005716
 9111 Fit      -0.005387
 9112 Fit      -0.005352
 9113 Fit      -0.009795
 9114 Fit      -0.011143
 9115 Fit      -0.012207
 9116 Fit      -0.012993
 9117 Fit      -0.013531
 9118 Fit      -0.013841
 9119 Fit      -0.013918
 9120 Fit      -0.013742
 9121 Fit      -0.013295
 9122 Fit      -0.012575
 9123 Fit      -0.011616
 9124 Fit      -0.010492
 9125 Fit      -0.009313
 9126 Fit      -0.008208
 9127 Fit      -0.007293
 9128 Fit      -0.006638
 9129 Fit      -0.006239
 9130 Fit      -0.005997
 9131 Fit      -0.006504
 9132 Fit      -0.007399
 9133 Fit      -0.008599
 9134 Fit      -0.009842
 9135 Fit      -0.010943
 9136 Fit      -0.011814
 9137 Fit      -0.012432
 9138 Fit      -0.012795
 9139 Fit      -0.012907
 9140 Fit      -0.012764
 9141 Fit      -0.012368
 9142 Fit      -0.011740
 9143 Fit      -0.010926
 9144 Fit      -0.010001
 9145 Fit      -0.009064
 9146 Fit      -0.008216
 9147 Fit      -0.007529
 9148 Fit      -0.007024
 9149 Fit      -0.006645
 9150 Fit      -0.006253
 9151 Fit      -0.005634
 9152 Fit      -0.006739
 9153 Fit      -0.007305
 9154 Fit      -0.008194
 9155 Fit      -0.009250
 9156 Fit      -0.010271
 9157 Fit      -0.011108
 9158 Fit      -0.011688
 9159 Fit      -0.011985
 9160 Fit      -0.011996
 9161 Fit      -0.011731
 9162 Fit      -0.011221
 9163 Fit      -0.010524
 9164 Fit      -0.009726
 9165 Fit      -0.008928
 9166 Fit      -0.008221
 9167 Fit      -0.007652
 9168 Fit      -0.007194
 9169 Fit      -0.006738
 9170 Fit      -0.006129
 9171 Fit      -0.005256
 9172 Fit      -0.004202
 9173 Fit      -0.003316
 9174 Fit      -0.003049
 9175 Fit      -0.003578
 9176 Fit      -0.006455
 9177 Fit      -0.007366
 9178 Fit      -0.007990
 9179 Fit      -0.008795
 9180 Fit      -0.009656
 9181 Fit      -0.010415
 9182 Fit      -0.010957
 9183 Fit      -0.011224
 9184 Fit      -0.011203
 9185 Fit      -0.010915
 9186 Fit      -0.010412
 9187 Fit      -0.009774
 9188 Fit      -0.009100
 9189 Fit      -0.008476
 9190 Fit      -0.007945
 9191 Fit      -0.007481
 9192 Fit      -0.006999
 9193 Fit      -0.006415
 9194 Fit      -0.005754
 9195 Fit      -0.005213
 9196 Fit      -0.005053
 9197 Fit      -0.005354
 9198 Fit      -0.005917
 9199 Fit      -0.006466
 9200 Fit      -0.006908
 9201 Fit      -0.007909
 9202 Fit      -0.008583
 9203 Fit      -0.009340
 9204 Fit      -0.010016
 9205 Fit      -0.010448
 9206 Fit      -0.010551
 9207 Fit      -0.010328
 9208 Fit      -0.009855
 9209 Fit      -0.009254
 9210 Fit      -0.008650
 9211 Fit      -0.008112
 9212 Fit      -0.007620
 9213 Fit      -0.007121
 9214 Fit      -0.006654
 9215 Fit      -0.006404
 9216 Fit      -0.006510
 9217 Fit      -0.006888
 9218 Fit      -0.007364
 9219 Fit      -0.008325
 9220 Fit      -0.009002
 9221 Fit      -0.009618
 9222 Fit      -0.009920
 9223 Fit      -0.009796
 9224 Fit      -0.009341
 9225 Fit      -0.008758
 9226 Fit      -0.008205
 9227 Fit      -0.007728
 9228 Fit      -0.007411
 9229 Fit      -0.007422
 9230 Fit      -0.007768
 9231 Fit      -0.008602
 9232 Fit      -0.009200
 9233 Fit      -0.009285
 9234 Fit      -0.008797
 9235 Fit      -0.008266
 9236 Fit      -0.008150
 9237 Fit      -0.008753
 9238 Fit      -0.007792
 9239 Fit      -0.008547
 9240 Fit      -0.009571
 9241 Fit      -0.005269
 9242 Fit      -0.006296
 9243 Fit      -0.007095
 9244 Fit      -0.007237
 9245 Fit      -0.008019
 9246 Fit      -0.008987
 9247 Fit       0.002084
 9248 Fit       0.000029
 9249 Fit      -0.001772
 9250 Fit      -0.003308
 9251 Fit      -0.004579
 9252 Fit      -0.005614
 9253 Fit      -0.006473
 9254 Fit      -0.007019
 9255 Fit      -0.007807
 9256 Fit      -0.008720
 9257 Fit       0.002091
 9258 Fit       0.000037
 9259 Fit      -0.001670
 9260 Fit      -0.003107
 9261 Fit      -0.004317
 9262 Fit      -0.005342
 9263 Fit      -0.006224
 9264 Fit      -0.006938
 9265 Fit      -0.007689
 9266 Fit      -0.008503
 9267 Fit      -0.009541
 9268 Fit       0.004094
 9269 Fit       0.001610
 9270 Fit      -0.000313
 9271 Fit      -0.001878
 9272 Fit      -0.003193
 9273 Fit      -0.004320
 9274 Fit      -0.005298
 9275 Fit      -0.006159
 9276 Fit      -0.006895
 9277 Fit      -0.007594
 9278 Fit      -0.008304
 9279 Fit      -0.009136
 9280 Fit       0.003680
 9281 Fit       0.001249
 9282 Fit      -0.000587
 9283 Fit      -0.002062
 9284 Fit      -0.003302
 9285 Fit      -0.004372
 9286 Fit      -0.005312
 9287 Fit      -0.006146
 9288 Fit      -0.006841
 9289 Fit      -0.007493
 9290 Fit      -0.008110
 9291 Fit      -0.008771
 9292 Fit       0.001403
 9293 Fit      -0.000522
 9294 Fit      -0.002030
 9295 Fit      -0.003277
 9296 Fit      -0.004349
 9297 Fit      -0.005286
 9298 Fit      -0.006112
 9299 Fit      -0.006759
 9300 Fit      -0.007355
 9301 Fit      -0.007866
 9302 Fit      -0.008344
 9303 Fit      -0.008878
 9304 Fit       0.001772
 9305 Fit      -0.000322
 9306 Fit      -0.001913
 9307 Fit      -0.003202
 9308 Fit      -0.004293
 9309 Fit      -0.005237
 9310 Fit      -0.006056
 9311 Fit      -0.006642
 9312 Fit      -0.007162
 9313 Fit      -0.007552
 9314 Fit      -0.007834
 9315 Fit      -0.008050
 9316 Fit       0.001911
 9317 Fit      -0.000252
 9318 Fit      -0.001880
 9319 Fit      -0.003181
 9320 Fit      -0.004268
 9321 Fit      -0.005195
 9322 Fit      -0.005986
 9323 Fit      -0.006490
 9324 Fit      -0.006936
 9325 Fit      -0.007207
 9326 Fit      -0.007306
 9327 Fit      -0.007251
 9328 Fit       0.002201
 9329 Fit      -0.000036
 9330 Fit      -0.001734
 9331 Fit      -0.003077
 9332 Fit      -0.004182
 9333 Fit      -0.005108
 9334 Fit      -0.005877
 9335 Fit      -0.006307
 9336 Fit      -0.006694
 9337 Fit      -0.006848
 9338 Fit      -0.006771
 9339 Fit      -0.006503
 9340 Fit       0.000738
 9341 Fit      -0.001164
 9342 Fit      -0.002678
 9343 Fit      -0.003900
 9344 Fit      -0.004899
 9345 Fit      -0.005702
 9346 Fit      -0.006098
 9347 Fit      -0.006424
 9348 Fit      -0.006497
 9349 Fit      -0.006356
 9350 Fit      -0.006142
 9351 Fit       0.000551
 9352 Fit      -0.001052
 9353 Fit      -0.002502
 9354 Fit      -0.003726
 9355 Fit      -0.004732
 9356 Fit      -0.005526
 9357 Fit      -0.005877
 9358 Fit      -0.006188
 9359 Fit      -0.006236
 9360 Fit      -0.006230
 9361 Fit      -0.000665
 9362 Fit      -0.001015
 9363 Fit      -0.002065
 9364 Fit      -0.003279
 9365 Fit      -0.004381
 9366 Fit      -0.005265
 9367 Fit      -0.005672
 9368 Fit      -0.006032
 9369 Fit      -0.006268
 9370 Fit      -0.002941
 9371 Fit      -0.003134
 9372 Fit      -0.004018
 9373 Fit      -0.004971
 9374 Fit      -0.005526
 9375 Fit      -0.006070
 9376 Fit      -0.004502
 9377 Fit      -0.004736
 9378 Fit      -0.005512
 9379 Fit      -0.015469
 9380 Fit      -0.017690
 9381 Fit      -0.020575
 9382 Fit      -0.024171
 9383 Fit      -0.012146
 9384 Fit      -0.013378
 9385 Fit      -0.015005
 9386 Fit      -0.017016
 9387 Fit      -0.019499
 9388 Fit      -0.022606
 9389 Fit      -0.026534
 9390 Fit      -0.010494
 9391 Fit      -0.011211
 9392 Fit      -0.012295
 9393 Fit      -0.013638
 9394 Fit      -0.015245
 9395 Fit      -0.017182
 9396 Fit      -0.019565
 9397 Fit      -0.022557
 9398 Fit      -0.026403
 9399 Fit      -0.010074
 9400 Fit      -0.010728
 9401 Fit      -0.011595
 9402 Fit      -0.012624
 9403 Fit      -0.013820
 9404 Fit      -0.015223
 9405 Fit      -0.016896
 9406 Fit      -0.018921
 9407 Fit      -0.021412
 9408 Fit      -0.024534
 9409 Fit      -0.028541
 9410 Fit      -0.009776
 9411 Fit      -0.009945
 9412 Fit      -0.010550
 9413 Fit      -0.011289
 9414 Fit      -0.012140
 9415 Fit      -0.013113
 9416 Fit      -0.014244
 9417 Fit      -0.015576
 9418 Fit      -0.017166
 9419 Fit      -0.019080
 9420 Fit      -0.021408
 9421 Fit      -0.024283
 9422 Fit      -0.027904
 9423 Fit      -0.009511
 9424 Fit      -0.009550
 9425 Fit      -0.009947
 9426 Fit      -0.010504
 9427 Fit      -0.011150
 9428 Fit      -0.011876
 9429 Fit      -0.012697
 9430 Fit      -0.013642
 9431 Fit      -0.014750
 9432 Fit      -0.016059
 9433 Fit      -0.017614
 9434 Fit      -0.019465
 9435 Fit      -0.021681
 9436 Fit      -0.024361
 9437 Fit      -0.027648
 9438 Fit      -0.009341
 9439 Fit      -0.009527
 9440 Fit      -0.009991
 9441 Fit      -0.010493
 9442 Fit      -0.011060
 9443 Fit      -0.011685
 9444 Fit      -0.012381
 9445 Fit      -0.013172
 9446 Fit      -0.014088
 9447 Fit      -0.015158
 9448 Fit      -0.016410
 9449 Fit      -0.017869
 9450 Fit      -0.019565
 9451 Fit      -0.021535
 9452 Fit      -0.023828
 9453 Fit      -0.026513
 9454 Fit      -0.009396
 9455 Fit      -0.009596
 9456 Fit      -0.010019
 9457 Fit      -0.010480
 9458 Fit      -0.011000
 9459 Fit      -0.011566
 9460 Fit      -0.012187
 9461 Fit      -0.012884
 9462 Fit      -0.013680
 9463 Fit      -0.014597
 9464 Fit      -0.015653
 9465 Fit      -0.016861
 9466 Fit      -0.018229
 9467 Fit      -0.019766
 9468 Fit      -0.021476
 9469 Fit      -0.023364
 9470 Fit      -0.025424
 9471 Fit      -0.009530
 9472 Fit      -0.009667
 9473 Fit      -0.009984
 9474 Fit      -0.010434
 9475 Fit      -0.010949
 9476 Fit      -0.011508
 9477 Fit      -0.012114
 9478 Fit      -0.012785
 9479 Fit      -0.013541
 9480 Fit      -0.014400
 9481 Fit      -0.015371
 9482 Fit      -0.016457
 9483 Fit      -0.017653
 9484 Fit      -0.018945
 9485 Fit      -0.020310
 9486 Fit      -0.021713
 9487 Fit      -0.023104
 9488 Fit      -0.024400
 9489 Fit      -0.009669
 9490 Fit      -0.009842
 9491 Fit      -0.010309
 9492 Fit      -0.010851
 9493 Fit      -0.011434
 9494 Fit      -0.012057
 9495 Fit      -0.012736
 9496 Fit      -0.013485
 9497 Fit      -0.014316
 9498 Fit      -0.015232
 9499 Fit      -0.016222
 9500 Fit      -0.017265
 9501 Fit      -0.018330
 9502 Fit      -0.019371
 9503 Fit      -0.020334
 9504 Fit      -0.021153
 9505 Fit      -0.009547
 9506 Fit      -0.009558
 9507 Fit      -0.010065
 9508 Fit      -0.010652
 9509 Fit      -0.011275
 9510 Fit      -0.011925
 9511 Fit      -0.012614
 9512 Fit      -0.013351
 9513 Fit      -0.014142
 9514 Fit      -0.014980
 9515 Fit      -0.015846
 9516 Fit      -0.016709
 9517 Fit      -0.017533
 9518 Fit      -0.018283
 9519 Fit      -0.009249
 9520 Fit      -0.009109
 9521 Fit      -0.009704
 9522 Fit      -0.010374
 9523 Fit      -0.011066
 9524 Fit      -0.011770
 9525 Fit      -0.012491
 9526 Fit      -0.013234
 9527 Fit      -0.013998
 9528 Fit      -0.014767
 9529 Fit      -0.015519
 9530 Fit      -0.016236
 9531 Fit      -0.016919
 9532 Fit      -0.008501
 9533 Fit      -0.009270
 9534 Fit      -0.010093
 9535 Fit      -0.010913
 9536 Fit      -0.011717
 9537 Fit      -0.012510
 9538 Fit      -0.013292
 9539 Fit      -0.014057
 9540 Fit      -0.014804
 9541 Fit      -0.007793
 9542 Fit      -0.008749
 9543 Fit      -0.009712
 9544 Fit      -0.010633
 9545 Fit      -0.011504
 9546 Fit      -0.012332
 9547 Fit      -0.013134
 9548 Fit      -0.013958
 9549 Fit      -0.007131
 9550 Fit      -0.008383
 9551 Fit      -0.009572
 9552 Fit      -0.010663
 9553 Fit      -0.011679
 9554 Fit      -0.008363
 9555 Fit      -0.009821
 -----------------------------------------------------------------
 Leave Link  602 at Tue Dec 01 19:49:56 2015, MaxMem=  134217728 cpu:       1.0

 Test job not archived.
 1|1|UNPC-JICUN-THINK|FOpt|RHF|6-31G(d)|C14H9Cl1F3N1O2|JICUN|01-Dec-201
 5|0||# opt=tight hf/6-31g(d) nosymm scf=qc pop=mk iop(6/33=2,6/42=6,6/
 50=1)||Molecule Name||0,1|C,-0.0644989166,4.0483053365,-3.8521134008|C
 ,0.8360505852,5.0826406261,-3.6857593988|C,0.5167344618,6.1423037699,-
 2.8520952231|C,-0.7026394748,6.1489190292,-2.1907209286|C,-1.600879460
 3,5.1073177958,-2.362336256|C,-1.279990377,4.0523239661,-3.1934446448|
 H,1.774842702,5.0478206183,-4.198272094|C,1.443425114,7.307841112,-2.5
 215442632|H,-2.5469861648,5.1223382056,-1.8519815571|H,-1.9707849965,3
 .2427332817,-3.3314706996|C,-0.3859364607,8.4349818336,-1.4312060056|H
 ,-1.8376472274,7.2140354558,-0.8189525527|Cl,0.3432713934,2.7193192828
 ,-4.9013682618|N,-0.9914633756,7.2162064479,-1.3434610247|O,0.68432296
 01,8.4684779636,-2.2315444515|O,-0.7772052328,9.4036668917,-0.87837650
 85|C,2.2970397163,7.7742299348,-3.7149849929|C,2.3185092428,6.96884029
 83,-1.3851347514|C,3.0101067251,6.6885580565,-0.461406462|C,3.85989900
 79,6.3537439419,0.6621575129|C,3.339064554,5.4491935154,1.7491271009|C
 ,4.3799130739,4.9469647964,0.810714921|H,4.5171508293,7.1484023343,0.9
 665609888|H,2.3368925644,5.0763217062,1.6434290643|H,3.6251269787,5.68
 55694456,2.758082604|H,5.3870834325,4.835512191,1.1697245689|H,4.08881
 68384,4.231176503,0.0640947823|F,1.5414023786,8.028526264,-4.761267390
 3|F,3.170838474,6.8443607587,-4.0614740578|F,2.967541574,8.8595669474,
 -3.4146764582||Version=IA32W-G09RevC.01|HF=-1497.3162265|RMSD=0.000e+0
 00|RMSF=5.407e-008|Dipole=-0.2379528,-1.7585977,1.0411115|Quadrupole=2
 8.5358742,-39.3382614,10.8023872,-1.6558702,7.7692008,14.3449838|PG=C0
 1 [X(C14H9Cl1F3N1O2)]||@


      THE ONE-EYED VIEW OF OUR UNIVERSE SAYS YOU MUST NOT LOOK
      FAR AFIELD FOR PROBLEMS.  SUCH PROBLEMS MAY NEVER ARRIVE. 
      INSTEAD, TEND TO THE WOLF WITHIN YOUR FENCES.
      THE PACKS RANGING OUTSIDE MAY NOT EVEN EXIST.

                              -- THE AZHAR BOOK SHAMRA I:4
                                 CHILDREN OF DUNE, BY FRANK HERBERT
 Job cpu time:  0 days  3 hours 15 minutes 24.0 seconds.
 File lengths (MBytes):  RWF=     33 Int=      0 D2E=      0 Chk=      8 Scr=      1
 Normal termination of Gaussian 09 at Tue Dec 01 19:49:56 2015.
